##############################################################################
###               Entry exported from Match! User Database                 ###
##############################################################################
###                           Data published by:                           ###
###                                                                        ###
###               COD (Crystallography Open Database)
##############################################################################
data_9001184
_citation_journal_full    'American Mineralogist'
_citation_journal_volume  '74'
_citation_page_first  '352'
_citation_page_last   '359'
_citation_year  '1989'
_citation_title  'High-pressure crystal chemistry of andradite and pyrope: Revised procedures for high-pressure diffraction experiments sample in air'
loop_
_publ_author_name
  'Hazen R. M.'
  'Finger L. W.'
_chemical_formula_sum  'Ca3 Fe2 O12 Si3'
_chemical_name_mineral  'Andradite'
_symmetry_space_group_name_H-M 'I a -3 d'
_space_group_IT_number 230
_space_group_crystal_system 'cubic'
loop_
_symmetry_equiv_pos_as_xyz
   'x, y, z'
   '0.5+x, 0.5+y, 0.5+z'
   '0.25-y, 0.75+x, 0.25+z'
   '0.75-y, 0.25+x, 0.75+z'
   '-x, 0.5-y, z'
   '0.5-x, -y, 0.5+z'
   '0.25+y, 0.25-x, 0.75+z'
   '0.75+y, 0.75-x, 0.25+z'
   '0.25+x, 0.25-z, 0.75+y'
   '0.75+x, 0.75-z, 0.25+y'
   'x, -y, 0.5-z'
   '0.5+x, 0.5-y, -z'
   '0.75+x, 0.25+z, 0.25-y'
   '0.25+x, 0.75+z, 0.75-y'
   '0.75+z, 0.25+y, 0.25-x'
   '0.25+z, 0.75+y, 0.75-x'
   '0.5-x, y, -z'
   '-x, 0.5+y, 0.5-z'
   '0.25-z, 0.75+y, 0.25+x'
   '0.75-z, 0.25+y, 0.75+x'
   'z, x, y'
   '0.5+z, 0.5+x, 0.5+y'
   'y, z, x'
   '0.5+y, 0.5+z, 0.5+x'
   '-y, 0.5-z, x'
   '0.5-y, -z, 0.5+x'
   'z, -x, 0.5-y'
   '0.5+z, 0.5-x, -y'
   '0.5-y, z, -x'
   '-y, 0.5+z, 0.5-x'
   '-z, 0.5-x, y'
   '0.5-z, -x, 0.5+y'
   '0.5-z, x, -y'
   '-z, 0.5+x, 0.5-y'
   'y, -z, 0.5-x'
   '0.5+y, 0.5-z, -x'
   '0.75+y, 0.25+x, 0.25-z'
   '0.25+y, 0.75+x, 0.75-z'
   '0.25-y, 0.25-x, 0.25-z'
   '0.75-y, 0.75-x, 0.75-z'
   '0.25-x, 0.75+z, 0.25+y'
   '0.75-x, 0.25+z, 0.75+y'
   '0.25-x, 0.25-z, 0.25-y'
   '0.75-x, 0.75-z, 0.75-y'
   '0.25+z, 0.25-y, 0.75+x'
   '0.75+z, 0.75-y, 0.25+x'
   '0.25-z, 0.25-y, 0.25-x'
   '0.75-z, 0.75-y, 0.75-x'
   '-x, -y, -z'
   '0.5-x, 0.5-y, 0.5-z'
   '0.25+y, 0.75-x, 0.25-z'
   '0.75+y, 0.25-x, 0.75-z'
   'x, 0.5+y, -z'
   '0.5+x, y, 0.5-z'
   '0.25-y, 0.25+x, 0.75-z'
   '0.75-y, 0.75+x, 0.25-z'
   '0.25-x, 0.25+z, 0.75-y'
   '0.75-x, 0.75+z, 0.25-y'
   '-x, y, 0.5+z'
   '0.5-x, 0.5+y, z'
   '0.75-x, 0.25-z, 0.25+y'
   '0.25-x, 0.75-z, 0.75+y'
   '0.75-z, 0.25-y, 0.25+x'
   '0.25-z, 0.75-y, 0.75+x'
   '0.5+x, -y, z'
   'x, 0.5-y, 0.5+z'
   '0.25+z, 0.75-y, 0.25-x'
   '0.75+z, 0.25-y, 0.75-x'
   '-z, -x, -y'
   '0.5-z, 0.5-x, 0.5-y'
   '-y, -z, -x'
   '0.5-y, 0.5-z, 0.5-x'
   'y, 0.5+z, -x'
   '0.5+y, z, 0.5-x'
   '-z, x, 0.5+y'
   '0.5-z, 0.5+x, y'
   '0.5+y, -z, x'
   'y, 0.5-z, 0.5+x'
   'z, 0.5+x, -y'
   '0.5+z, x, 0.5-y'
   '0.5+z, -x, y'
   'z, 0.5-x, 0.5+y'
   '-y, z, 0.5+x'
   '0.5-y, 0.5+z, x'
   '0.75-y, 0.25-x, 0.25+z'
   '0.25-y, 0.75-x, 0.75+z'
   '0.25+y, 0.25+x, 0.25+z'
   '0.75+y, 0.75+x, 0.75+z'
   '0.25+x, 0.75-z, 0.25-y'
   '0.75+x, 0.25-z, 0.75-y'
   '0.25+x, 0.25+z, 0.25+y'
   '0.75+x, 0.75+z, 0.75+y'
   '0.25-z, 0.25+y, 0.75-x'
   '0.75-z, 0.75+y, 0.25-x'
   '0.25+z, 0.25+y, 0.25+x'
   '0.75+z, 0.75+y, 0.75+x'
_cell_length_a       12.0310
_cell_length_b       12.0310
_cell_length_c       12.0310
_cell_angle_alpha    90.000
_cell_angle_beta     90.000
_cell_angle_gamma    90.000
loop_
_atom_site_label
_atom_site_type_symbol
_atom_site_fract_x
_atom_site_fract_y
_atom_site_fract_z
_atom_site_occupancy
_atom_site_B_iso_or_equiv
si Si     0.375   0.000   0.250    1.00000    0.540
fe Fe     0.000   0.000   0.000    1.00000    0.570
ca Ca     0.125   0.000   0.250    1.00000    0.660
o  O    0.040   0.049   0.656    1.00000    0.599
_cell_measurement_wavelength    1.541874
_cell_measurement_radiation   'x-rays'
_exptl_crystal_density_diffrn    3.875000
loop_
_pd_peak_d_spacing
_pd_peak_calc_intensity_net
     4.911635          0.04
     4.253601        248.48
     3.215420          1.60
     3.007750        757.93
     2.690213       1000.00
     2.565018         92.09
     2.455818        769.53
     2.359473        153.97
     2.196550        134.53
     2.126801          5.03
     1.951686        226.71
     1.902268        152.40
     1.856424          1.86
     1.773874          0.24
     1.736525         56.93
     1.701440          6.36
     1.668400        275.93
     1.637212         15.16
     1.607710        866.13
     1.527938          3.18
     1.503875        131.13
     1.480914         17.42
     1.458973          1.16
     1.437980          9.40
     1.417867         31.97
     1.398575          3.06
     1.362242          2.70
     1.345107        183.77
     1.312690        163.53
     1.297336         12.17
     1.282509        132.68
     1.268179         20.72
     1.240903          4.57
     1.227909         14.77
     1.215315         34.41
     1.203100          0.05
     1.191247          4.41
     1.179737          3.49
     1.168554          5.31
     1.147111          6.04
     1.126806          0.15
     1.117050        137.60
     1.107543          1.52
     1.098275        188.80
     1.089236          5.41
     1.071807          3.56
     1.063400        121.46
     1.039320          1.87
     1.031650          4.25
     1.024147          7.68
     1.016805          0.73
     1.009619          0.52
##############################################################################
###                            Comments                                    ###
##############################################################################
###   Diffraction pattern calculated by Match!. 
###   I/Icor calculated by Match!. 
##############################################################################


