##############################################################################
###               Entry exported from Match! User Database                 ###
##############################################################################
###                           Data published by:                           ###
###                                                                        ###
###               COD (Crystallography Open Database)
##############################################################################
data_9010383
_citation_journal_full    'American Mineralogist'
_citation_journal_volume  '93'
_citation_page_first  '210'
_citation_page_last   '216'
_citation_year  '2008'
_citation_title  'Synthesis and characterization of low-OH- fluor-chlorapatite: a single-crystal XRD and NMR spectroscopic study Locality: synthetic'
loop_
_publ_author_name
  'McCubbin F. M.'
  'Mason H. E.'
  'Park H.'
  'Phillips B. L.'
  'Parise J. B.'
  'Nekvasil H.'
  'Lindsley D. H.'
_chemical_formula_sum  'Ca5 Cl0.4 F0.5 H1.343 O12.1 P3'
_chemical_name_mineral  'Apatite-(CaF)'
_symmetry_space_group_name_H-M 'P 63/m'
_space_group_IT_number 176
_space_group_crystal_system 'hexagonal'
loop_
_symmetry_equiv_pos_as_xyz
   'x, y, z'
   'x-y, x, 0.5+z'
   '-y, x-y, z'
   '-x, -y, 0.5+z'
   '-x+y, -x, z'
   'y, -x+y, 0.5+z'
   '-x, -y, -z'
   '-x+y, -x, 0.5-z'
   'y, -x+y, -z'
   'x, y, 0.5-z'
   'x-y, x, -z'
   '-y, x-y, 0.5-z'
_cell_length_a        9.4410
_cell_length_b        9.4410
_cell_length_c        6.8350
_cell_angle_alpha    90.000
_cell_angle_beta     90.000
_cell_angle_gamma   120.000
loop_
_atom_site_label
_atom_site_type_symbol
_atom_site_fract_x
_atom_site_fract_y
_atom_site_fract_z
_atom_site_occupancy
_atom_site_B_iso_or_equiv
ca1   Ca   0.667   0.333   0.002    1.00000    0.296
ca2   Ca   -0.005   0.249   0.250    1.00000    0.533
p   P   0.370   0.401   0.250    1.00000    0.122
f  F    0.000   0.000   0.250    0.70000    1.500
o1  O    0.486   0.331   0.250    1.00000    0.347
o2  O    0.465   0.589   0.250    1.00000    0.599
o3  O    0.259   0.346   0.070    1.00000    0.884
_cell_measurement_wavelength    1.541874
_cell_measurement_radiation   'x-rays'
_exptl_crystal_density_diffrn    3.213000
loop_
_pd_peak_d_spacing
_pd_peak_calc_intensity_net
     8.176146         84.70
     5.243990         45.60
     4.720500          8.20
     4.088073         33.18
     3.884194         50.68
     3.508418         27.09
     3.417500        323.83
     3.153138         63.11
     3.090293        122.06
     2.815858       1000.00
     2.768198        500.27
     2.725382        661.28
     2.621995        213.53
     2.531553         38.88
     2.360250          4.36
     2.292140         54.59
     2.267655        213.88
     2.230979         13.33
     2.194717          2.37
     2.152293         62.75
     2.130784         13.96
     2.051847         47.47
     2.044036         10.67
     1.990136         34.11
     1.958341          2.94
     1.942097        320.69
     1.889523        128.49
     1.875736         43.70
     1.833824        325.20
     1.808858        180.23
     1.784181        137.14
     1.754209        117.03
     1.747997         13.85
     1.726334          4.65
     1.708750        147.81
     1.672612         15.93
     1.644340         71.36
     1.639220          0.09
     1.635229          1.35
     1.607236         47.18
     1.606722          0.38
     1.590349         18.47
     1.581612          9.47
     1.576569          2.89
     1.573500         10.52
     1.545146         48.22
     1.533391         34.87
     1.521465          0.39
     1.507116         34.54
     1.495373         55.78
     1.475066         89.27
     1.468479         15.09
     1.448105         60.48
     1.447730         75.33
     1.435717         88.50
     1.429279         18.22
     1.407929         17.10
     1.404711         12.66
     1.384099          0.49
     1.364683          5.18
     1.362691          4.03
     1.349196         25.93
     1.348285          0.79
     1.344150          5.23
     1.336390          0.02
     1.328473          1.96
     1.318889         42.88
     1.313051          3.65
     1.310997          1.49
     1.309231         42.11
     1.296440          2.92
     1.294731          1.90
     1.285854         21.07
     1.278797         43.28
     1.265776         14.00
     1.263187         17.12
     1.250875         35.88
     1.250149         54.68
     1.246851         19.52
     1.234307         45.60
     1.234074         54.36
     1.226608          7.12
     1.222586         74.15
     1.221908          1.58
     1.182920          3.00
     1.181418          3.88
     1.180125         24.77
     1.171327          7.13
     1.170731          7.81
     1.169473          1.37
     1.168021          7.42
     1.162918         11.82
     1.157690         43.31
     1.157498          7.31
     1.151331          1.50
     1.146070         53.77
     1.139167         18.09
     1.136306          1.13
     1.135155         16.63
     1.133827          2.85
     1.128268          3.32
     1.118542          0.95
     1.115489          3.27
     1.113716         33.14
     1.107378         43.66
     1.105250         78.43
     1.104749         30.48
     1.097359          3.00
     1.093771          3.84
     1.085116          0.58
     1.082957         27.15
     1.076146         13.79
     1.069614          1.13
     1.068858          2.38
     1.065392          4.30
     1.056461          7.38
     1.051046          0.64
     1.048798          5.77
     1.047893          0.24
     1.046848          0.90
     1.039391          8.22
     1.039252         12.29
     1.034782         16.11
     1.032364         19.16
     1.031955         11.13
     1.030098          0.56
     1.025923         28.44
     1.023832          8.94
     1.022018         13.20
     1.018595         31.85
     1.017941         24.53
     1.015076          2.16
     1.010781          0.20
     1.007216         34.62
##############################################################################
###                            Comments                                    ###
##############################################################################
###   Diffraction pattern calculated by Match!. 
###   I/Icor calculated by Match!. 
##############################################################################


