##############################################################################
###               Entry exported from Match! User Database                 ###
##############################################################################
###                           Data published by:                           ###
###                                                                        ###
###               COD (Crystallography Open Database)
##############################################################################
data_9011095
_citation_journal_full    'Acta Crystallographica, Section B'
_citation_journal_volume  '25'
_citation_page_first  '1534'
_citation_page_last   '1543'
_citation_year  '1969'
_citation_title  'Significant precision in crystal structural details: Holly Springs hydroxyapatite Locality: Holly Springs, Cherokee County, Georgia, USA Sample: X-23-4'
loop_
_publ_author_name
  'Sudarsanan K.'
  'Young R. A.'
_chemical_formula_sum  'Ca5 H O13 P3'
_chemical_name_mineral  'Apatite-(CaOH)'
_symmetry_space_group_name_H-M 'P 63/m'
_space_group_IT_number 176
_space_group_crystal_system 'hexagonal'
loop_
_symmetry_equiv_pos_as_xyz
   'x, y, z'
   'x-y, x, 0.5+z'
   '-y, x-y, z'
   '-x, -y, 0.5+z'
   '-x+y, -x, z'
   'y, -x+y, 0.5+z'
   '-x, -y, -z'
   '-x+y, -x, 0.5-z'
   'y, -x+y, -z'
   'x, y, 0.5-z'
   'x-y, x, -z'
   '-y, x-y, 0.5-z'
_cell_length_a        9.4240
_cell_length_b        9.4240
_cell_length_c        6.8790
_cell_angle_alpha    90.000
_cell_angle_beta     90.000
_cell_angle_gamma   120.000
loop_
_atom_site_label
_atom_site_type_symbol
_atom_site_fract_x
_atom_site_fract_y
_atom_site_fract_z
_atom_site_occupancy
_atom_site_B_iso_or_equiv
ca1 Ca     0.333   0.667   0.002    1.00000    1.000
ca2 Ca     0.247   0.993   0.250    1.00000    1.000
p P     0.399   0.368   0.250    1.00000    1.000
o1  O2-    0.328   0.485   0.250    1.00000    1.000
o2  O2-    0.587   0.465   0.250    1.00000    1.000
o3  O2-    0.344   0.258   0.070    1.00000    1.000
o4  O2-    0.000   0.000   0.195    0.50000    1.000
h   H   0.000   0.000   0.061    0.50000    1.000
_cell_measurement_wavelength    1.541874
_cell_measurement_radiation   'x-rays'
_exptl_crystal_density_diffrn    3.153000
loop_
_pd_peak_d_spacing
_pd_peak_calc_intensity_net
     8.161424        136.46
     5.259848         41.75
     4.712000         21.05
     4.080712         59.06
     3.887447         58.03
     3.509646         23.08
     3.439500        346.99
     3.169533         77.08
     3.084728        150.13
     2.814685       1000.00
     2.778112        485.51
     2.720474        621.45
     2.629924        220.88
     2.529825         40.17
     2.356000          2.76
     2.296450         54.31
     2.263572        222.22
     2.228899         17.00
     2.207528          2.98
     2.150156         59.95
     2.133720         12.94
     2.061830         50.62
     2.040356         10.05
     1.999025         39.24
     1.956124          1.97
     1.943724        304.94
     1.890839        127.45
     1.872359         42.59
     1.840267        324.96
     1.806633        173.76
     1.780969        120.88
     1.754823        118.66
     1.753283         13.18
     1.724123          6.35
     1.719750        146.15
     1.682796         10.90
     1.644485         64.81
     1.643217          0.02
     1.632285          0.79
     1.615515          1.22
     1.610891         41.17
     1.588186         17.74
     1.584766          1.77
     1.581528          7.39
     1.570667          8.45
     1.542364         47.78
     1.531259         35.21
     1.524276          0.23
     1.504999         29.52
     1.502087         45.61
     1.474651         85.38
     1.465835         12.96
     1.453654         71.51
     1.450282         60.02
     1.433648         75.70
     1.428744         13.76
     1.407342         13.58
     1.406547         14.32
     1.389056          0.19
     1.369364          4.39
     1.360237          2.90
     1.356659          0.73
     1.348481         23.25
     1.341730          3.63
     1.334400          0.37
     1.329771          2.41
     1.320657          3.08
     1.316914         38.71
     1.314962          2.74
     1.306874         34.76
     1.303699          2.49
     1.295816          1.49
     1.283909         20.62
     1.279785         38.68
     1.266567         12.28
     1.264912         10.54
     1.256494         47.05
     1.249989         26.81
     1.244605         18.24
     1.237123         53.06
     1.235043         37.70
     1.227731          1.43
     1.224721          7.72
     1.221660         64.46
     1.188065          3.04
     1.183913          4.40
     1.178000         18.96
     1.175673          6.46
     1.170340          6.27
     1.169882          0.36
     1.165918          6.30
     1.161098          9.79
     1.159760          7.50
     1.158045         37.07
     1.149523          0.89
     1.148225         40.15
     1.146500         14.98
     1.140703          0.66
     1.135411         15.42
     1.135352          1.94
     1.131786          2.28
     1.116772          0.74
     1.115581         23.82
     1.114449          3.57
     1.113999         41.00
     1.108679         26.14
     1.104202         68.11
     1.103764          0.96
     1.093859          4.00
     1.088769          0.63
     1.081007         19.91
     1.075078         11.14
     1.074673          1.54
     1.067901          0.47
     1.066860          4.16
     1.057860          4.50
     1.056511          0.17
     1.051970          5.10
     1.047815          0.01
     1.044963          0.80
     1.040523          8.98
     1.039284          6.18
     1.034916         10.30
     1.033111         12.40
     1.031272         14.96
     1.030915         24.77
     1.028243          0.64
     1.026694          5.91
     1.022788         19.94
     1.020178         10.09
     1.016945         24.49
     1.014892          2.41
     1.009141          0.22
     1.008262         25.46
##############################################################################
###                            Comments                                    ###
##############################################################################
###   Diffraction pattern calculated by Match!. 
###   I/Icor calculated by Match!. 
##############################################################################


