##############################################################################
###               Entry exported from Match! User Database                 ###
##############################################################################
###                           Data published by:                           ###
###                                                                        ###
###               COD (Crystallography Open Database)
##############################################################################
data_9000229
_citation_journal_full    'American Mineralogist'
_citation_journal_volume  '56'
_citation_page_first  '768'
_citation_page_last   '772'
_citation_year  '1971'
_citation_title  'Refinement of the crystal structure of aragonite'
loop_
_publ_author_name
  'Dal Negro A.'
  'Ungaretti L.'
_chemical_formula_sum  'C Ca O3'
_chemical_name_mineral  'Aragonite'
_symmetry_space_group_name_H-M 'P m c n'
_space_group_IT_number 62
_space_group_crystal_system 'orthorhombic'
loop_
_symmetry_equiv_pos_as_xyz
   'x, y, z'
   '0.5-x, 0.5-y, 0.5+z'
   '0.5+x, -y, -z'
   '-x, 0.5+y, 0.5-z'
   '-x, -y, -z'
   '0.5+x, 0.5+y, 0.5-z'
   '0.5-x, y, z'
   'x, 0.5-y, 0.5+z'
_cell_length_a        4.9616
_cell_length_b        7.9705
_cell_length_c        5.7394
_cell_angle_alpha    90.000
_cell_angle_beta     90.000
_cell_angle_gamma    90.000
loop_
_atom_site_label
_atom_site_type_symbol
_atom_site_fract_x
_atom_site_fract_y
_atom_site_fract_z
_atom_site_occupancy
_atom_site_B_iso_or_equiv
ca  Ca    0.250   0.415   0.240    1.00000    1.000
c   C   0.250   0.763   0.085    1.00000    1.000
o1   O2-   0.250   0.923   0.095    1.00000    1.000
o2  O2-    0.473   0.680   0.087    1.00000    1.000
_cell_measurement_wavelength    1.540598
_cell_measurement_radiation   'x-rays'
_exptl_crystal_density_diffrn    2.927000
loop_
_pd_peak_d_spacing
_pd_peak_calc_intensity_net
     4.657543          2.33
     4.212163         20.16
     3.985250          7.60
     3.395787       1000.00
     3.273484        570.80
     2.869700         41.04
     2.732377         86.19
     2.700030        537.73
     2.484123        293.81
     2.480800        175.38
     2.411036        159.27
     2.371609        411.88
     2.342175        279.90
     2.328771        193.03
     2.189570        144.38
     2.168555          4.64
     2.108113          0.12
     2.106081        211.29
     1.992625         35.11
     1.977168        715.95
     1.949580          3.54
     1.882403        311.50
     1.876742        186.45
     1.860295          1.78
     1.826785         19.98
     1.814527        291.07
     1.759993         34.83
     1.741884        307.03
     1.728998         74.23
     1.724698        139.00
     1.697893         21.78
     1.636742         26.07
     1.629081          8.84
     1.619372         17.95
     1.558524         57.49
     1.554351          0.08
     1.553537          8.75
     1.552514          0.26
     1.535956         22.60
     1.532876          3.55
     1.517691          0.82
     1.499573         58.51
     1.488324          0.66
     1.481672          0.63
     1.476161         33.92
     1.467259         66.30
     1.434850          1.55
     1.432929          5.66
     1.416101          0.84
     1.412151         40.02
     1.410319         28.15
     1.404054         31.48
     1.393531          0.04
     1.380036          0.07
     1.378370          2.70
     1.366188         35.65
     1.363837          1.54
     1.358210         51.36
     1.350015         19.53
     1.348415          4.51
     1.341619         28.89
     1.329564          4.03
     1.328417         17.05
     1.316049          0.06
     1.305918          8.51
     1.302655          3.47
     1.294203          0.58
     1.262501          0.81
     1.261191         69.47
     1.252301          0.55
     1.242446          0.02
     1.242061         28.19
     1.240400         58.94
     1.236026         92.57
     1.227250          0.09
     1.224678          0.17
     1.223512         64.64
     1.214969         19.55
     1.205994         73.85
     1.205518         28.66
     1.198621          0.01
     1.193716          2.73
     1.188993         60.72
     1.185804          2.77
     1.184358          0.59
     1.171436         10.52
     1.171087         91.48
     1.164386          5.26
     1.163358          0.12
     1.159920         32.25
     1.147746          0.22
     1.147445          1.29
     1.138590          6.94
     1.136158          1.91
     1.133588          1.73
     1.131929          4.35
     1.127147         15.49
     1.125463         34.82
     1.125177          6.23
     1.116876          1.20
     1.109794          3.36
     1.107493         24.12
     1.103036          9.46
     1.102991          5.17
     1.098155          0.80
     1.094785         15.57
     1.091161          0.08
     1.089610         13.86
     1.084277         12.02
     1.083814          0.20
     1.076749          0.16
     1.073931         10.61
     1.066462          0.25
     1.065694          0.00
     1.065673         16.22
     1.059601          1.24
     1.058374          2.24
     1.054057         12.05
     1.053737          4.06
     1.053041          4.56
     1.046537          0.53
     1.045829          0.02
     1.042649         13.55
     1.035752         44.61
     1.035087         11.99
     1.032979         16.86
     1.032023          0.40
     1.030748          0.07
     1.019229          1.88
     1.018424          2.75
     1.007898         32.46
     1.007010         26.01
##############################################################################
###                            Comments                                    ###
##############################################################################
###   Diffraction pattern calculated by Match!. 
###   I/Icor calculated by Match!. 
##############################################################################


