##############################################################################
###               Entry exported from Match! User Database                 ###
##############################################################################
###                           Data published by:                           ###
###                                                                        ###
###               COD (Crystallography Open Database)
##############################################################################
data_9000969
_citation_journal_full    'American Mineralogist'
_citation_journal_volume  '70'
_citation_page_first  '590'
_citation_page_last   '600'
_citation_year  '1985'
_citation_title  'High-temperature structure refinements of calcite and magnesite Sample: T = 750 C'
loop_
_publ_author_name
  'Markgraf S. A.'
  'Reeder R. J.'
_chemical_formula_sum  'C Ca O3'
_chemical_name_mineral  'Calcite'
_symmetry_space_group_name_H-M 'R -3 c'
_space_group_IT_number 167
_space_group_crystal_system 'Reeder R. J.'
loop_
_symmetry_equiv_pos_as_xyz
   'x, y, z'
   '0.66667+x, 0.33333+y, 0.33333+z'
   '0.33333+x, 0.66667+y, 0.66667+z'
   '-y, x-y, z'
   '0.66667-y, 0.33333+x-y, 0.33333+z'
   '0.33333-y, 0.66667+x-y, 0.66667+z'
   '-x+y, -x, z'
   '0.66667-x+y, 0.33333-x, 0.33333+z'
   '0.33333-x+y, 0.66667-x, 0.66667+z'
   'x-y, -y, 0.5-z'
   '0.66667+x-y, 0.33333-y, 0.83333-z'
   '0.33333+x-y, 0.66667-y, 0.16667-z'
   '-x, -x+y, 0.5-z'
   '0.66667-x, 0.33333-x+y, 0.83333-z'
   '0.33333-x, 0.66667-x+y, 0.16667-z'
   'y, x, 0.5-z'
   '0.66667+y, 0.33333+x, 0.83333-z'
   '0.33333+y, 0.66667+x, 0.16667-z'
   '-x, -y, -z'
   '0.66667-x, 0.33333-y, 0.33333-z'
   '0.33333-x, 0.66667-y, 0.66667-z'
   'y, -x+y, -z'
   '0.66667+y, 0.33333-x+y, 0.33333-z'
   '0.33333+y, 0.66667-x+y, 0.66667-z'
   'x-y, x, -z'
   '0.66667+x-y, 0.33333+x, 0.33333-z'
   '0.33333+x-y, 0.66667+x, 0.66667-z'
   '-x+y, y, 0.5+z'
   '0.66667-x+y, 0.33333+y, 0.83333+z'
   '0.33333-x+y, 0.66667+y, 0.16667+z'
   'x, x-y, 0.5+z'
   '0.66667+x, 0.33333+x-y, 0.83333+z'
   '0.33333+x, 0.66667+x-y, 0.16667+z'
   '-y, -x, 0.5+z'
   '0.66667-y, 0.33333-x, 0.83333+z'
   '0.33333-y, 0.66667-x, 0.16667+z'
_cell_length_a        4.9780
_cell_length_b        4.9780
_cell_length_c       17.4620
_cell_angle_alpha    90.000
_cell_angle_beta     90.000
_cell_angle_gamma   120.000
loop_
_atom_site_label
_atom_site_type_symbol
_atom_site_fract_x
_atom_site_fract_y
_atom_site_fract_z
_atom_site_occupancy
_atom_site_B_iso_or_equiv
ca Ca     0.000   0.000   0.000    1.00000    1.000
c  C    0.000   0.000   0.250    1.00000    1.000
o  O2-    0.253   0.000   0.250    1.00000    1.000
_cell_measurement_wavelength    1.540598
_cell_measurement_radiation   'x-rays'
_cell_measurement_temperature    1023.100000
_exptl_crystal_density_diffrn    2.661000
loop_
_pd_peak_d_spacing
_pd_peak_calc_intensity_net
     3.865532         68.27
     3.067451       1000.00
     2.910333         23.51
     2.489000        136.15
     2.288544        178.95
     2.092704        140.09
     1.947369        206.06
     1.932766         59.08
     1.891578        197.36
     1.622385         37.29
     1.618472          8.30
     1.601777         96.48
     1.533726         24.22
     1.530227         30.08
     1.526561         48.82
     1.476622         23.43
     1.455167         41.39
     1.437025         59.88
     1.364195         15.67
     1.356843         23.78
     1.305734         25.91
     1.288511          6.14
     1.256228         21.18
     1.244500         10.46
     1.216994          0.05
     1.198147          2.86
     1.192884          0.01
     1.191326         26.41
     1.184620          5.07
     1.153204         44.68
     1.144272         22.89
     1.137051          6.39
     1.131216          0.01
     1.079576          9.23
     1.078220          0.01
     1.069650          0.04
     1.057999         16.09
     1.054495          5.03
     1.048651         32.19
     1.047530          0.02
     1.046352         30.32
     1.036461          4.40
     1.022484         30.90
##############################################################################
###                            Comments                                    ###
##############################################################################
###   Diffraction pattern calculated by Match!. 
###   I/Icor calculated by Match!. 
##############################################################################


