#------------------------------------------------------------------------------
#$Date: 2013-05-05 14:21:46 +0000 (Sun, 05 May 2013) $
#$Revision: 85285 $
#$URL: file:///home/coder/svn-repositories/cod/cif/9/00/00/9000042.cif $
#------------------------------------------------------------------------------
#
# This file is available in the Crystallography Open Database (COD),
# http://www.crystallography.net/. The original data for this entry
# were provided the American Mineralogist Crystal Structure Database,
# http://rruff.geo.arizona.edu/AMS/amcsd.php
#
# The file may be used within the scientific community so long as
# proper attribution is given to the journal article from which the
# data were obtained.
#
data_9000042
loop_
_publ_author_name
'Hamburger, G. E.'
'Buerger, M. J.'
_publ_section_title
;
 The structure of tourmaline
;
_journal_name_full               'American Mineralogist'
_journal_page_first              532
_journal_page_last               540
_journal_volume                  33
_journal_year                    1948
_chemical_formula_sum            'Al6 B3 H4 Mg3 Na O31 Si6'
_chemical_name_mineral           Dravite
_space_group_IT_number           160
_symmetry_space_group_name_Hall  'R 3 -2"'
_symmetry_space_group_name_H-M   'R 3 m :H'
_cell_angle_alpha                90
_cell_angle_beta                 90
_cell_angle_gamma                120
_cell_length_a                   15.951
_cell_length_b                   15.951
_cell_length_c                   7.24
_cell_volume                     1595.310
_exptl_crystal_density_diffrn    2.994
_[local]_cod_cif_authors_sg_H-M  'R 3 m'
_[local]_cod_chemical_formula_sum_orig 'Na Mg3 B3 Al6 Si6 (O31 H4)'
_cod_database_code               9000042
loop_
_symmetry_equiv_pos_as_xyz
x,y,z
2/3+x,1/3+y,1/3+z
1/3+x,2/3+y,2/3+z
x,x-y,z
2/3+x,1/3+x-y,1/3+z
1/3+x,2/3+x-y,2/3+z
-y,-x,z
2/3-y,1/3-x,1/3+z
1/3-y,2/3-x,2/3+z
-x+y,y,z
2/3-x+y,1/3+y,1/3+z
1/3-x+y,2/3+y,2/3+z
-y,x-y,z
2/3-y,1/3+x-y,1/3+z
1/3-y,2/3+x-y,2/3+z
-x+y,-x,z
2/3-x+y,1/3-x,1/3+z
1/3-x+y,2/3-x,2/3+z
loop_
_atom_site_label
_atom_site_fract_x
_atom_site_fract_y
_atom_site_fract_z
Na 0.00000 0.00000 0.77000
Mg 0.13300 0.06650 0.25500
B 0.11700 0.23400 0.00000
Al 0.05000 0.36700 0.82500
Si 0.19200 0.19200 0.62400
O-H1 0.00000 0.00000 0.40300
O2 0.05800 0.11600 0.00000
O-H3 0.23300 0.11650 0.03200
O4 0.14200 0.07100 0.62400
O5 0.10200 0.20400 0.74200
O6 0.20000 0.20000 0.40300
O7 0.27900 0.24600 0.75800
O8 0.05800 0.29200 0.00000
