
data_9007069
_citation_journal_full    'Physics and Chemistry of Minerals'
_citation_journal_volume  '29'
_citation_page_first  '465'
_citation_page_last   '472'
_citation_year  '2002'
_citation_title  'Single-crystal elastic constants of fluorite (CaF2) to 9.3 GPa Sample: P = 8.35 GPa'
loop_
_publ_author_name
  'Speziale S.'
  'Duffy T. S.'
_cell_length_a 5.2786
_cell_length_b 5.2786
_cell_length_c 5.2786
_cell_angle_alpha 90.000
_cell_angle_beta 90.000
_cell_angle_gamma 90.000
_chemical_formula_sum 'Ca F2'
_chemical_name_mineral 'Fluorite'
_symmetry_space_group_name_H-M 'F m -3 m'
_space_group_IT_number 225
_space_group_crystal_system 'cubic'
loop_
_symmetry_equiv_pos_as_xyz
   'x, y, z'
   '0.5+x, 0.5+y, z'
   '0.5+x, y, 0.5+z'
   'x, 0.5+y, 0.5+z'
   '-y, x, z'
   '0.5-y, 0.5+x, z'
   '0.5-y, x, 0.5+z'
   '-y, 0.5+x, 0.5+z'
   '-x, -y, z'
   '0.5-x, 0.5-y, z'
   '0.5-x, -y, 0.5+z'
   '-x, 0.5-y, 0.5+z'
   'y, -x, z'
   '0.5+y, 0.5-x, z'
   '0.5+y, -x, 0.5+z'
   'y, 0.5-x, 0.5+z'
   'x, -z, y'
   '0.5+x, 0.5-z, y'
   '0.5+x, -z, 0.5+y'
   'x, 0.5-z, 0.5+y'
   'x, -y, -z'
   '0.5+x, 0.5-y, -z'
   '0.5+x, -y, 0.5-z'
   'x, 0.5-y, 0.5-z'
   'x, z, -y'
   '0.5+x, 0.5+z, -y'
   '0.5+x, z, 0.5-y'
   'x, 0.5+z, 0.5-y'
   'z, y, -x'
   '0.5+z, 0.5+y, -x'
   '0.5+z, y, 0.5-x'
   'z, 0.5+y, 0.5-x'
   '-x, y, -z'
   '0.5-x, 0.5+y, -z'
   '0.5-x, y, 0.5-z'
   '-x, 0.5+y, 0.5-z'
   '-z, y, x'
   '0.5-z, 0.5+y, x'
   '0.5-z, y, 0.5+x'
   '-z, 0.5+y, 0.5+x'
   'z, x, y'
   '0.5+z, 0.5+x, y'
   '0.5+z, x, 0.5+y'
   'z, 0.5+x, 0.5+y'
   'y, z, x'
   '0.5+y, 0.5+z, x'
   '0.5+y, z, 0.5+x'
   'y, 0.5+z, 0.5+x'
   '-y, -z, x'
   '0.5-y, 0.5-z, x'
   '0.5-y, -z, 0.5+x'
   '-y, 0.5-z, 0.5+x'
   'z, -x, -y'
   '0.5+z, 0.5-x, -y'
   '0.5+z, -x, 0.5-y'
   'z, 0.5-x, 0.5-y'
   '-y, z, -x'
   '0.5-y, 0.5+z, -x'
   '0.5-y, z, 0.5-x'
   '-y, 0.5+z, 0.5-x'
   '-z, -x, y'
   '0.5-z, 0.5-x, y'
   '0.5-z, -x, 0.5+y'
   '-z, 0.5-x, 0.5+y'
   '-z, x, -y'
   '0.5-z, 0.5+x, -y'
   '0.5-z, x, 0.5-y'
   '-z, 0.5+x, 0.5-y'
   'y, -z, -x'
   '0.5+y, 0.5-z, -x'
   '0.5+y, -z, 0.5-x'
   'y, 0.5-z, 0.5-x'
   'y, x, -z'
   '0.5+y, 0.5+x, -z'
   '0.5+y, x, 0.5-z'
   'y, 0.5+x, 0.5-z'
   '-y, -x, -z'
   '0.5-y, 0.5-x, -z'
   '0.5-y, -x, 0.5-z'
   '-y, 0.5-x, 0.5-z'
   '-x, z, y'
   '0.5-x, 0.5+z, y'
   '0.5-x, z, 0.5+y'
   '-x, 0.5+z, 0.5+y'
   '-x, -z, -y'
   '0.5-x, 0.5-z, -y'
   '0.5-x, -z, 0.5-y'
   '-x, 0.5-z, 0.5-y'
   'z, -y, x'
   '0.5+z, 0.5-y, x'
   '0.5+z, -y, 0.5+x'
   'z, 0.5-y, 0.5+x'
   '-z, -y, -x'
   '0.5-z, 0.5-y, -x'
   '0.5-z, -y, 0.5-x'
   '-z, 0.5-y, 0.5-x'
   '-x, -y, -z'
   '0.5-x, 0.5-y, -z'
   '0.5-x, -y, 0.5-z'
   '-x, 0.5-y, 0.5-z'
   'y, -x, -z'
   '0.5+y, 0.5-x, -z'
   '0.5+y, -x, 0.5-z'
   'y, 0.5-x, 0.5-z'
   'x, y, -z'
   '0.5+x, 0.5+y, -z'
   '0.5+x, y, 0.5-z'
   'x, 0.5+y, 0.5-z'
   '-y, x, -z'
   '0.5-y, 0.5+x, -z'
   '0.5-y, x, 0.5-z'
   '-y, 0.5+x, 0.5-z'
   '-x, z, -y'
   '0.5-x, 0.5+z, -y'
   '0.5-x, z, 0.5-y'
   '-x, 0.5+z, 0.5-y'
   '-x, y, z'
   '0.5-x, 0.5+y, z'
   '0.5-x, y, 0.5+z'
   '-x, 0.5+y, 0.5+z'
   '-x, -z, y'
   '0.5-x, 0.5-z, y'
   '0.5-x, -z, 0.5+y'
   '-x, 0.5-z, 0.5+y'
   '-z, -y, x'
   '0.5-z, 0.5-y, x'
   '0.5-z, -y, 0.5+x'
   '-z, 0.5-y, 0.5+x'
   'x, -y, z'
   '0.5+x, 0.5-y, z'
   '0.5+x, -y, 0.5+z'
   'x, 0.5-y, 0.5+z'
   'z, -y, -x'
   '0.5+z, 0.5-y, -x'
   '0.5+z, -y, 0.5-x'
   'z, 0.5-y, 0.5-x'
   '-z, -x, -y'
   '0.5-z, 0.5-x, -y'
   '0.5-z, -x, 0.5-y'
   '-z, 0.5-x, 0.5-y'
   '-y, -z, -x'
   '0.5-y, 0.5-z, -x'
   '0.5-y, -z, 0.5-x'
   '-y, 0.5-z, 0.5-x'
   'y, z, -x'
   '0.5+y, 0.5+z, -x'
   '0.5+y, z, 0.5-x'
   'y, 0.5+z, 0.5-x'
   '-z, x, y'
   '0.5-z, 0.5+x, y'
   '0.5-z, x, 0.5+y'
   '-z, 0.5+x, 0.5+y'
   'y, -z, x'
   '0.5+y, 0.5-z, x'
   '0.5+y, -z, 0.5+x'
   'y, 0.5-z, 0.5+x'
   'z, x, -y'
   '0.5+z, 0.5+x, -y'
   '0.5+z, x, 0.5-y'
   'z, 0.5+x, 0.5-y'
   'z, -x, y'
   '0.5+z, 0.5-x, y'
   '0.5+z, -x, 0.5+y'
   'z, 0.5-x, 0.5+y'
   '-y, z, x'
   '0.5-y, 0.5+z, x'
   '0.5-y, z, 0.5+x'
   '-y, 0.5+z, 0.5+x'
   '-y, -x, z'
   '0.5-y, 0.5-x, z'
   '0.5-y, -x, 0.5+z'
   '-y, 0.5-x, 0.5+z'
   'y, x, z'
   '0.5+y, 0.5+x, z'
   '0.5+y, x, 0.5+z'
   'y, 0.5+x, 0.5+z'
   'x, -z, -y'
   '0.5+x, 0.5-z, -y'
   '0.5+x, -z, 0.5-y'
   'x, 0.5-z, 0.5-y'
   'x, z, y'
   '0.5+x, 0.5+z, y'
   '0.5+x, z, 0.5+y'
   'x, 0.5+z, 0.5+y'
   '-z, y, -x'
   '0.5-z, 0.5+y, -x'
   '0.5-z, y, 0.5-x'
   '-z, 0.5+y, 0.5-x'
   'z, y, x'
   '0.5+z, 0.5+y, x'
   '0.5+z, y, 0.5+x'
   'z, 0.5+y, 0.5+x'
loop_
_atom_site_label
_atom_site_type_symbol
_atom_site_fract_x
_atom_site_fract_y
_atom_site_fract_z
_atom_site_occupancy
_atom_site_B_iso_or_equiv
Ca Ca2+ 0.000 0.000 0.000 1.00000 1.000
F F- 0.250 0.250 0.250 1.00000 1.000
#End of TTdata_424633-ICSD