##############################################################################
###               Entry exported from Match! User Database                 ###
##############################################################################
###                           Data published by:                           ###
###                                                                        ###
###               COD (Crystallography Open Database)
##############################################################################
data_9013400
_citation_journal_full    'Acta Crystallographica, Section C'
_citation_journal_volume  '43'
_citation_page_first  '1443'
_citation_page_last   '1445'
_citation_year  '1987'
_citation_title  'Temperature dependence of atomic thermal parameters of lead chalcogenides, PbS, PbSe and PbTe Locality: synthetic Sample: T = 120 K'
loop_
_publ_author_name
  'Noda Y.'
  'Masumoto K.'
  'Ohba S.'
  'Saito Y.'
  'Toriumi K.'
  'Iwata Y.'
  'Shibuya I.'
_chemical_formula_sum  'Pb S'
_chemical_name_mineral  'Galena'
_symmetry_space_group_name_H-M 'F m -3 m'
_space_group_IT_number 225
_space_group_crystal_system 'cubic'
loop_
_symmetry_equiv_pos_as_xyz
   'x, y, z'
   '0.5+x, 0.5+y, z'
   '0.5+x, y, 0.5+z'
   'x, 0.5+y, 0.5+z'
   '-y, x, z'
   '0.5-y, 0.5+x, z'
   '0.5-y, x, 0.5+z'
   '-y, 0.5+x, 0.5+z'
   '-x, -y, z'
   '0.5-x, 0.5-y, z'
   '0.5-x, -y, 0.5+z'
   '-x, 0.5-y, 0.5+z'
   'y, -x, z'
   '0.5+y, 0.5-x, z'
   '0.5+y, -x, 0.5+z'
   'y, 0.5-x, 0.5+z'
   'x, -z, y'
   '0.5+x, 0.5-z, y'
   '0.5+x, -z, 0.5+y'
   'x, 0.5-z, 0.5+y'
   'x, -y, -z'
   '0.5+x, 0.5-y, -z'
   '0.5+x, -y, 0.5-z'
   'x, 0.5-y, 0.5-z'
   'x, z, -y'
   '0.5+x, 0.5+z, -y'
   '0.5+x, z, 0.5-y'
   'x, 0.5+z, 0.5-y'
   'z, y, -x'
   '0.5+z, 0.5+y, -x'
   '0.5+z, y, 0.5-x'
   'z, 0.5+y, 0.5-x'
   '-x, y, -z'
   '0.5-x, 0.5+y, -z'
   '0.5-x, y, 0.5-z'
   '-x, 0.5+y, 0.5-z'
   '-z, y, x'
   '0.5-z, 0.5+y, x'
   '0.5-z, y, 0.5+x'
   '-z, 0.5+y, 0.5+x'
   'z, x, y'
   '0.5+z, 0.5+x, y'
   '0.5+z, x, 0.5+y'
   'z, 0.5+x, 0.5+y'
   'y, z, x'
   '0.5+y, 0.5+z, x'
   '0.5+y, z, 0.5+x'
   'y, 0.5+z, 0.5+x'
   '-y, -z, x'
   '0.5-y, 0.5-z, x'
   '0.5-y, -z, 0.5+x'
   '-y, 0.5-z, 0.5+x'
   'z, -x, -y'
   '0.5+z, 0.5-x, -y'
   '0.5+z, -x, 0.5-y'
   'z, 0.5-x, 0.5-y'
   '-y, z, -x'
   '0.5-y, 0.5+z, -x'
   '0.5-y, z, 0.5-x'
   '-y, 0.5+z, 0.5-x'
   '-z, -x, y'
   '0.5-z, 0.5-x, y'
   '0.5-z, -x, 0.5+y'
   '-z, 0.5-x, 0.5+y'
   '-z, x, -y'
   '0.5-z, 0.5+x, -y'
   '0.5-z, x, 0.5-y'
   '-z, 0.5+x, 0.5-y'
   'y, -z, -x'
   '0.5+y, 0.5-z, -x'
   '0.5+y, -z, 0.5-x'
   'y, 0.5-z, 0.5-x'
   'y, x, -z'
   '0.5+y, 0.5+x, -z'
   '0.5+y, x, 0.5-z'
   'y, 0.5+x, 0.5-z'
   '-y, -x, -z'
   '0.5-y, 0.5-x, -z'
   '0.5-y, -x, 0.5-z'
   '-y, 0.5-x, 0.5-z'
   '-x, z, y'
   '0.5-x, 0.5+z, y'
   '0.5-x, z, 0.5+y'
   '-x, 0.5+z, 0.5+y'
   '-x, -z, -y'
   '0.5-x, 0.5-z, -y'
   '0.5-x, -z, 0.5-y'
   '-x, 0.5-z, 0.5-y'
   'z, -y, x'
   '0.5+z, 0.5-y, x'
   '0.5+z, -y, 0.5+x'
   'z, 0.5-y, 0.5+x'
   '-z, -y, -x'
   '0.5-z, 0.5-y, -x'
   '0.5-z, -y, 0.5-x'
   '-z, 0.5-y, 0.5-x'
   '-x, -y, -z'
   '0.5-x, 0.5-y, -z'
   '0.5-x, -y, 0.5-z'
   '-x, 0.5-y, 0.5-z'
   'y, -x, -z'
   '0.5+y, 0.5-x, -z'
   '0.5+y, -x, 0.5-z'
   'y, 0.5-x, 0.5-z'
   'x, y, -z'
   '0.5+x, 0.5+y, -z'
   '0.5+x, y, 0.5-z'
   'x, 0.5+y, 0.5-z'
   '-y, x, -z'
   '0.5-y, 0.5+x, -z'
   '0.5-y, x, 0.5-z'
   '-y, 0.5+x, 0.5-z'
   '-x, z, -y'
   '0.5-x, 0.5+z, -y'
   '0.5-x, z, 0.5-y'
   '-x, 0.5+z, 0.5-y'
   '-x, y, z'
   '0.5-x, 0.5+y, z'
   '0.5-x, y, 0.5+z'
   '-x, 0.5+y, 0.5+z'
   '-x, -z, y'
   '0.5-x, 0.5-z, y'
   '0.5-x, -z, 0.5+y'
   '-x, 0.5-z, 0.5+y'
   '-z, -y, x'
   '0.5-z, 0.5-y, x'
   '0.5-z, -y, 0.5+x'
   '-z, 0.5-y, 0.5+x'
   'x, -y, z'
   '0.5+x, 0.5-y, z'
   '0.5+x, -y, 0.5+z'
   'x, 0.5-y, 0.5+z'
   'z, -y, -x'
   '0.5+z, 0.5-y, -x'
   '0.5+z, -y, 0.5-x'
   'z, 0.5-y, 0.5-x'
   '-z, -x, -y'
   '0.5-z, 0.5-x, -y'
   '0.5-z, -x, 0.5-y'
   '-z, 0.5-x, 0.5-y'
   '-y, -z, -x'
   '0.5-y, 0.5-z, -x'
   '0.5-y, -z, 0.5-x'
   '-y, 0.5-z, 0.5-x'
   'y, z, -x'
   '0.5+y, 0.5+z, -x'
   '0.5+y, z, 0.5-x'
   'y, 0.5+z, 0.5-x'
   '-z, x, y'
   '0.5-z, 0.5+x, y'
   '0.5-z, x, 0.5+y'
   '-z, 0.5+x, 0.5+y'
   'y, -z, x'
   '0.5+y, 0.5-z, x'
   '0.5+y, -z, 0.5+x'
   'y, 0.5-z, 0.5+x'
   'z, x, -y'
   '0.5+z, 0.5+x, -y'
   '0.5+z, x, 0.5-y'
   'z, 0.5+x, 0.5-y'
   'z, -x, y'
   '0.5+z, 0.5-x, y'
   '0.5+z, -x, 0.5+y'
   'z, 0.5-x, 0.5+y'
   '-y, z, x'
   '0.5-y, 0.5+z, x'
   '0.5-y, z, 0.5+x'
   '-y, 0.5+z, 0.5+x'
   '-y, -x, z'
   '0.5-y, 0.5-x, z'
   '0.5-y, -x, 0.5+z'
   '-y, 0.5-x, 0.5+z'
   'y, x, z'
   '0.5+y, 0.5+x, z'
   '0.5+y, x, 0.5+z'
   'y, 0.5+x, 0.5+z'
   'x, -z, -y'
   '0.5+x, 0.5-z, -y'
   '0.5+x, -z, 0.5-y'
   'x, 0.5-z, 0.5-y'
   'x, z, y'
   '0.5+x, 0.5+z, y'
   '0.5+x, z, 0.5+y'
   'x, 0.5+z, 0.5+y'
   '-z, y, -x'
   '0.5-z, 0.5+y, -x'
   '0.5-z, y, 0.5-x'
   '-z, 0.5+y, 0.5-x'
   'z, y, x'
   '0.5+z, 0.5+y, x'
   '0.5+z, y, 0.5+x'
   'z, 0.5+y, 0.5+x'
_cell_length_a        5.9143
_cell_length_b        5.9143
_cell_length_c        5.9143
_cell_angle_alpha    90.000
_cell_angle_beta     90.000
_cell_angle_gamma    90.000
loop_
_atom_site_label
_atom_site_type_symbol
_atom_site_fract_x
_atom_site_fract_y
_atom_site_fract_z
_atom_site_occupancy
_atom_site_B_iso_or_equiv
pb  Pb    0.000   0.000   0.000    1.00000    0.540
s   S   0.500   0.500   0.500    1.00000    0.579
_cell_measurement_wavelength    1.541874
_cell_measurement_radiation   'x-rays'
_exptl_crystal_density_diffrn    7.682000
loop_
_pd_peak_d_spacing
_pd_peak_calc_intensity_net
     3.414623        975.94
     2.957150       1000.00
     2.091021        731.22
     1.783229        483.47
     1.707311        252.41
     1.478575        115.04
     1.356833        191.19
     1.322478        310.56
     1.207251        228.12
     1.138208        143.14
     1.045510         77.11
     0.999699        161.58
     0.985717        175.98
     0.935133        137.04
     0.901922         79.22
     0.891614        141.95
     0.853656         52.42
     0.828168        205.13
     0.820166        191.41
     0.790332        582.22
##############################################################################
###                            Comments                                    ###
##############################################################################
###   Diffraction pattern calculated by Match!. 
###   I/Icor calculated by Match!. 
##############################################################################


