##############################################################################
###               Entry exported from Match! User Database                 ###
##############################################################################
###                           Data published by:                           ###
###                                                                        ###
###               COD (Crystallography Open Database)
##############################################################################
data_9001836
_citation_journal_full    'American Mineralogist'
_citation_journal_volume  '82'
_citation_page_first  '467'
_citation_page_last   '474'
_citation_year  '1997'
_citation_title  'Compressibility and crystal structure of kyanite, Al2SiO5, at high pressure Sample: at P = 0.0 GPa, in air'
loop_
_publ_author_name
  'Yang H.'
  'Downs R. T.'
  'Finger L. W.'
  'Hazen R. M.'
  'Prewitt C. T.'
_chemical_formula_sum  'Al2 O5 Si'
_chemical_name_mineral  'Kyanite'
_symmetry_space_group_name_H-M 'P -1'
_space_group_IT_number 2
_space_group_crystal_system 'triclinic'
loop_
_symmetry_equiv_pos_as_xyz
   'x, y, z'
   '-x, -y, -z'
_cell_length_a        7.1200
_cell_length_b        7.8479
_cell_length_c        5.5738
_cell_angle_alpha    89.974
_cell_angle_beta    101.117
_cell_angle_gamma   106.000
loop_
_atom_site_label
_atom_site_type_symbol
_atom_site_fract_x
_atom_site_fract_y
_atom_site_fract_z
_atom_site_occupancy
_atom_site_B_iso_or_equiv
al1   Al   0.325   0.704   0.458    1.00000    1.000
al2   Al   0.297   0.699   0.950    1.00000    1.000
al3   Al   0.100   0.386   0.640    1.00000    1.000
al4   Al   0.112   0.917   0.165    1.00000    1.000
si1  Si    0.296   0.065   0.707    1.00000    1.000
si2  Si    0.291   0.332   0.189    1.00000    1.000
o1   O   0.109   0.147   0.129    1.00000    1.000
o2   O   0.123   0.685   0.181    1.00000    1.000
o3   O   0.275   0.454   0.955    1.00000    1.000
o4   O   0.284   0.936   0.936    1.00000    1.000
o5   O   0.108   0.152   0.667    1.00000    1.000
o6   O   0.122   0.631   0.639    1.00000    1.000
o7   O   0.282   0.445   0.429    1.00000    1.000
o8   O   0.292   0.947   0.466    1.00000    1.000
o9   O   0.501   0.275   0.244    1.00000    1.000
o10   O   0.502   0.231   0.756    1.00000    1.000
_cell_measurement_wavelength    1.540598
_cell_measurement_radiation   'x-rays'
_exptl_crystal_density_diffrn    3.669000
loop_
_pd_peak_d_spacing
_pd_peak_calc_intensity_net
     7.532105          0.03
     6.705269         56.92
     5.897912         43.43
     5.460670          0.00
     4.723065          0.12
     4.543303          0.00
     4.428564         86.56
     4.308153        228.09
     4.301292        231.34
     3.871243          0.01
     3.766034        202.31
     3.765785         28.94
     3.756669         26.35
     3.443116         76.95
     3.352634       1000.00
     3.191289        579.46
     3.185838        348.10
     3.184503        435.71
     3.182936        627.53
     3.152768          6.32
     3.022336        167.60
     3.021177        128.69
     2.948982        121.59
     2.948956        136.45
     2.786020         19.62
     2.751771          6.56
     2.750924          0.35
     2.730335         32.42
     2.726847         33.94
     2.701027        403.42
     2.694300        376.78
     2.631572         12.35
     2.614107         42.45
     2.613315         62.60
     2.603610         56.13
     2.522146        366.16
     2.517363        242.07
     2.510702        381.46
     2.462526         26.81
     2.461889         53.87
     2.368531          0.03
     2.368345         97.43
     2.361533         86.06
     2.361249        290.66
     2.356162        368.40
     2.351265        311.97
     2.332183        122.20
     2.331102        123.52
     2.328479          0.03
     2.312580          2.24
     2.307280          3.46
     2.272625         69.55
     2.271652         47.77
     2.235090         41.86
     2.234258         46.22
     2.232335         50.41
     2.231257          1.45
     2.214282         84.09
     2.214263         94.81
     2.181766         53.35
     2.181351         77.91
     2.169493         91.80
     2.162964        149.28
     2.160467        146.91
     2.154077         12.19
     2.153241          5.08
     2.150646         14.19
     2.149828          7.66
     2.093501          0.43
     2.091156          0.76
     2.007615        103.24
     2.003469         98.41
     1.995363          0.93
     1.973116         41.69
     1.967524         15.85
     1.965970         18.16
     1.961975        749.13
     1.943225         51.27
     1.942907         23.35
     1.936885          3.62
     1.935730          6.48
     1.935622        735.49
     1.933230          8.43
     1.929427        744.44
     1.903252          0.20
     1.901803          0.68
     1.883456          1.66
     1.883026         26.36
     1.883017         22.81
     1.882893          5.61
     1.878875          1.64
     1.878334          4.45
     1.865783          3.03
     1.864919          1.02
     1.853072          0.12
     1.846676         27.14
     1.846151         11.79
     1.820223          2.54
     1.812109          0.14
     1.811622          0.08
     1.808133          0.06
     1.798722          0.00
     1.795508          0.46
     1.792302          2.09
     1.790822          3.56
     1.789694          0.22
     1.784070          4.43
     1.783643          7.91
     1.776214          0.83
     1.773829          0.40
     1.767041        145.20
     1.763729        157.81
     1.753863          5.01
     1.750279          5.05
     1.749825          6.55
     1.747147         16.42
     1.744405         13.42
     1.743390          2.57
     1.734008          6.87
     1.733804          1.20
     1.721570          0.19
     1.721558          0.49
     1.708656          0.18
     1.706285          6.18
     1.701020          3.71
     1.693339          0.02
     1.693326          0.05
     1.677730         32.82
     1.676522         29.50
     1.676317          0.87
     1.675935         60.97
     1.674096         33.69
     1.673863          3.11
     1.665954          3.41
     1.665582          0.03
     1.649760         15.23
     1.649203         20.28
     1.626689          0.02
     1.624684         64.54
     1.624464          0.18
     1.620096         47.44
     1.619957         39.55
     1.608344         10.52
     1.604625          3.90
     1.604108          1.43
     1.603591          0.01
     1.595644         22.66
     1.595299         37.57
     1.593616         56.37
     1.593522         82.72
     1.592942         52.27
     1.592919         56.98
     1.592251         49.25
     1.591468         27.92
     1.591142         32.58
     1.589367         90.71
     1.581113          5.24
     1.576384          7.93
     1.574355          0.12
     1.574018          4.15
     1.573099         24.40
     1.572764         18.65
     1.571352          2.50
     1.566900          0.82
     1.563224          2.48
     1.563056          4.10
     1.546766          0.11
     1.545934         13.40
     1.536578         10.22
     1.536131          4.63
     1.519344         10.40
     1.514434          0.02
     1.511168          0.26
     1.510640          0.01
     1.510589          2.47
     1.509387          0.01
     1.508823          0.57
     1.506421         71.03
     1.505946         20.13
     1.505066         19.75
     1.503685          7.00
     1.501644         64.57
     1.501351         61.07
     1.501224          1.13
     1.500906          1.19
     1.496890          1.07
     1.490310          1.20
     1.488337          0.01
     1.480168         67.72
     1.480088          4.69
     1.478054         38.37
     1.476397         36.00
     1.476188         48.23
     1.475876         61.17
     1.474491          7.07
     1.474478          7.50
     1.473976         68.65
     1.473509         16.23
     1.473431         70.65
     1.473256         29.20
     1.464964         37.33
     1.464568          6.30
     1.452434         68.72
     1.436051         12.01
     1.433764         10.76
     1.431816          0.03
     1.431053          0.14
     1.417016         19.37
     1.414828          3.86
     1.414819         20.59
     1.414718         26.17
     1.407892         22.97
     1.403597         28.91
     1.402251          2.79
     1.398844          0.22
     1.393443        458.64
     1.393010          0.64
     1.393002          2.39
     1.389336          5.79
     1.388744         14.78
     1.381511         12.75
     1.381263         17.25
     1.380940          8.84
     1.378809         11.74
     1.378484          0.06
     1.378427          1.08
     1.378255          7.87
     1.378136        379.53
     1.377729         12.34
     1.377692        414.06
     1.376841          8.88
     1.375885        387.93
     1.375462        416.68
     1.370520          1.86
     1.369865          2.43
     1.369181         11.82
     1.367411         10.61
     1.367387          1.42
     1.365977          4.74
     1.365667          2.56
     1.365167          0.00
     1.363424          0.25
     1.356647          6.45
     1.355570          1.27
     1.354180         26.87
     1.352448         17.82
     1.351299         14.04
     1.351014         30.33
     1.350725         17.76
     1.350673         36.89
     1.350514         12.65
     1.347479          5.73
     1.347346         16.56
     1.347150         12.57
     1.346871          0.90
     1.341054        351.73
     1.334691          0.01
     1.334097          0.03
     1.330304          0.39
     1.328093          3.50
     1.325462          9.73
     1.324946          6.16
     1.320646          0.13
     1.319771          6.15
     1.317685          0.27
     1.316958          0.07
     1.316867         25.15
     1.315969          0.00
     1.315786          0.01
     1.312772         21.33
     1.312280          0.01
     1.307854          5.61
     1.307425          5.21
     1.307301          0.07
     1.307054          1.14
     1.306658          6.10
     1.306288          1.10
     1.305771          0.23
     1.304356          0.11
     1.304075          3.07
     1.303189          0.01
     1.301807          5.17
     1.301805          7.45
     1.293041          5.06
     1.292944         30.08
     1.292880          2.35
     1.290470          2.99
     1.290414          0.00
     1.288879          2.33
     1.288195         31.86
     1.287152          0.18
     1.287106          0.01
     1.285317          5.75
     1.285283          0.02
     1.285269         31.72
     1.285151          0.08
     1.274484         11.09
     1.274473         15.96
     1.273659          1.46
     1.273140          4.53
     1.272042          9.83
     1.271787          4.86
     1.261881         18.59
     1.261073          6.52
     1.260923          0.08
     1.260738          8.52
     1.260670          0.55
     1.260611          7.60
     1.260340         19.80
     1.259010          6.16
     1.258681          6.29
     1.255351          2.33
     1.255345          3.06
     1.255262          1.22
     1.252223          0.86
     1.252085          0.08
     1.251085          0.18
     1.249185         38.59
     1.247834          2.66
     1.245799          0.28
     1.245006          8.76
     1.244683          0.63
     1.243503          0.98
     1.242418          0.18
     1.242306         10.13
     1.241791          5.28
     1.238872          4.99
     1.238640          2.31
     1.231263          0.01
     1.231216          0.12
     1.230944          0.26
     1.229017          0.01
     1.228718          0.45
     1.228628          6.46
     1.228485          2.05
     1.228133          5.98
     1.227678         11.58
     1.227387          0.05
     1.222400          3.78
     1.222178          0.06
     1.219066         32.24
     1.217684         24.85
     1.217129          0.34
     1.214284          0.12
     1.208782         11.98
     1.208556          6.02
     1.201341          5.04
     1.201187          0.24
     1.200707          0.46
     1.199270         32.73
     1.199262          0.02
     1.198220         24.31
     1.197238          0.02
     1.194184         22.38
     1.194152          0.01
     1.193768          3.14
     1.193747         25.72
     1.191814          0.56
     1.189891          5.63
     1.186906          2.05
     1.186860          3.34
     1.185918          8.67
     1.185892          1.80
     1.185855          9.17
     1.184265          0.10
     1.184172          6.70
     1.183852          1.33
     1.181786          9.71
     1.181369          7.44
     1.180954         40.11
     1.180901          0.15
     1.180766          6.84
     1.180624          1.40
     1.180104         37.51
     1.179582         22.85
     1.178291          0.21
     1.178081          0.13
     1.177812          0.77
     1.176746          0.29
     1.175641          1.17
     1.175632          2.48
     1.172172         11.26
     1.170758         14.24
     1.170565          8.99
     1.169843         17.59
     1.167668          1.91
     1.166490          1.05
     1.166296          1.61
     1.166092          0.89
     1.165942          1.57
     1.165551          1.27
     1.164245         10.22
     1.164239          7.70
     1.158417          1.95
     1.157222          2.25
     1.156290          0.17
     1.156157          0.61
     1.153640          0.13
     1.153518          0.08
     1.153468          0.08
     1.151582         11.25
     1.151577          2.81
     1.151388          1.90
     1.149906          1.59
     1.148056          3.07
     1.147705          0.08
     1.147237          2.27
     1.144172          0.34
     1.140721          0.03
     1.140687          1.30
     1.140575          0.39
     1.139229          1.08
     1.137797          2.85
     1.136312         43.71
     1.135892          1.84
     1.135826         66.90
     1.135770          1.54
     1.133570          1.20
     1.129938          5.14
     1.129166          7.55
     1.128979         10.56
     1.128450          6.72
     1.128063          1.38
     1.127712          0.15
     1.125744          0.23
     1.125214          7.30
     1.122680         14.74
     1.122296          8.64
     1.121869          0.01
     1.121761          2.72
     1.121719         10.70
     1.120823          0.96
     1.120354          3.47
     1.120150          0.03
     1.119856          1.33
     1.119392          5.70
     1.118260          7.81
     1.117545          0.07
     1.117129          0.07
     1.116777          1.06
     1.116167          0.16
     1.115827          0.35
     1.115628          8.44
     1.113941          0.00
     1.112729          1.93
     1.112417          0.33
     1.107141         39.37
     1.107132         43.56
     1.105753          0.78
     1.103606          0.01
     1.100312          3.36
     1.099740          3.93
     1.099493          0.63
     1.099211          0.02
     1.097414          0.71
     1.096673          4.25
     1.096663          1.45
     1.096614          1.34
     1.095402          0.59
     1.095290          0.45
     1.095238          0.01
     1.093556          0.00
     1.092902         23.44
     1.092678         21.50
     1.092134          0.55
     1.090883         21.14
     1.090675         25.43
     1.090093          0.79
     1.089509          5.02
     1.088401          5.46
     1.087252          0.55
     1.086879          0.13
     1.085855          0.08
     1.085336          2.50
     1.084843          2.56
     1.084747          0.01
     1.084621          1.12
     1.084541          0.37
     1.084532          0.10
     1.084492          3.45
     1.083333          4.13
     1.083296          4.24
     1.083183          7.74
     1.081689          0.31
     1.081482          0.26
     1.080233          0.09
     1.080224          0.02
     1.079083         11.22
     1.078931          5.57
     1.078744          0.00
     1.078284          0.31
     1.077965          1.30
     1.077038          0.26
     1.076620          0.05
     1.076015          0.54
     1.075523          0.01
     1.075323          0.22
     1.074914          0.00
     1.073262          0.06
##############################################################################
###                            Comments                                    ###
##############################################################################
###   Diffraction pattern calculated by Match!. 
###   I/Icor calculated by Match!. 
##############################################################################


