##############################################################################
###               Entry exported from Match! User Database                 ###
##############################################################################
###                           Data published by:                           ###
###                                                                        ###
###               COD (Crystallography Open Database)
##############################################################################
data_9001840
_citation_journal_full    'American Mineralogist'
_citation_journal_volume  '82'
_citation_page_first  '467'
_citation_page_last   '474'
_citation_year  '1997'
_citation_title  'Compressibility and crystal structure of kyanite, Al2SiO5, at high pressure Sample: at P = 4.56 GPa'
loop_
_publ_author_name
  'Yang H.'
  'Downs R. T.'
  'Finger L. W.'
  'Hazen R. M.'
  'Prewitt C. T.'
_chemical_formula_sum  'Al2 O5 Si'
_chemical_name_mineral  'Kyanite'
_symmetry_space_group_name_H-M 'P -1'
_space_group_IT_number 2
_space_group_crystal_system 'triclinic'
loop_
_symmetry_equiv_pos_as_xyz
   'x, y, z'
   '-x, -y, -z'
_cell_length_a        7.0648
_cell_length_b        7.7926
_cell_length_c        5.5299
_cell_angle_alpha    90.089
_cell_angle_beta    101.085
_cell_angle_gamma   105.982
loop_
_atom_site_label
_atom_site_type_symbol
_atom_site_fract_x
_atom_site_fract_y
_atom_site_fract_z
_atom_site_occupancy
_atom_site_B_iso_or_equiv
al1  Al    0.324   0.704   0.457    1.00000    0.390
al2  Al    0.298   0.699   0.950    1.00000    0.379
al3  Al    0.100   0.386   0.640    1.00000    0.368
al4  Al    0.112   0.918   0.165    1.00000    0.330
si1  Si    0.296   0.065   0.706    1.00000    0.340
si2  Si    0.292   0.333   0.192    1.00000    0.358
o1   O   0.109   0.148   0.132    1.00000    0.439
o2   O   0.121   0.682   0.178    1.00000    0.390
o3   O   0.276   0.455   0.954    1.00000    0.400
o4   O   0.284   0.935   0.938    1.00000    0.428
o5   O   0.109   0.152   0.670    1.00000    0.400
o6   O   0.121   0.631   0.640    1.00000    0.270
o7   O   0.284   0.446   0.430    1.00000    0.529
o8   O   0.292   0.948   0.465    1.00000    0.469
o9   O   0.502   0.273   0.244    1.00000    0.428
o10   O   0.501   0.234   0.756    1.00000    0.617
_cell_measurement_wavelength    1.540598
_cell_measurement_radiation   'x-rays'
_cell_measurement_pressure       4560000.000000
_exptl_crystal_density_diffrn    3.754000
loop_
_pd_peak_d_spacing
_pd_peak_calc_intensity_net
     7.478896          0.67
     6.653901         52.02
     5.854427         43.50
     5.417669          0.00
     4.686214          0.20
     4.513054          0.00
     4.395744         87.14
     4.271808        227.17
     4.264904        222.63
     3.841123          0.01
     3.739448         95.09
     3.739367         25.48
     3.739192        109.54
     3.730626         23.57
     3.416986         74.27
     3.326951       1000.00
     3.165528        594.55
     3.164158        433.56
     3.159522        337.55
     3.157113        632.59
     3.128442          6.04
     3.001345        123.37
     2.997651        160.54
     2.927583        118.80
     2.927214        136.97
     2.765001         20.63
     2.732570          0.61
     2.729383          5.86
     2.708835         37.09
     2.705409         31.09
     2.681171        412.14
     2.674728        394.34
     2.611251         10.65
     2.595371         42.76
     2.591350         67.31
     2.585216         57.15
     2.501085        376.86
     2.499291        252.34
     2.492965        403.98
     2.444741         59.42
     2.442887         28.33
     2.349799        103.93
     2.349669          0.12
     2.344060        327.74
     2.343107         92.45
     2.336678        364.86
     2.334308        331.20
     2.317054        133.88
     2.316072        135.00
     2.310689          0.00
     2.294381          1.59
     2.289039          3.40
     2.256527         51.27
     2.253220         71.10
     2.217967         50.06
     2.216605         51.40
     2.214567         55.81
     2.214112          1.45
     2.197872         91.55
     2.197612         97.70
     2.166050         84.87
     2.164362         61.32
     2.151772         99.17
     2.147203        159.96
     2.144937        152.31
     2.138624          7.01
     2.135904         13.60
     2.135350          7.55
     2.132452         12.67
     2.079373          0.63
     2.077247          1.00
     1.992554        109.47
     1.988585        104.27
     1.980214          1.43
     1.958495         42.90
     1.951612         18.38
     1.951476         18.57
     1.948148        811.04
     1.928825         26.98
     1.927984         61.27
     1.921977          3.83
     1.920595          7.14
     1.920561        788.67
     1.917945         10.58
     1.914475        797.33
     1.889556          0.76
     1.887223          0.48
     1.869724         29.41
     1.869683          5.80
     1.869596         23.81
     1.867929          2.81
     1.865313          6.02
     1.863317          2.49
     1.853627          3.02
     1.849238          1.99
     1.838481          0.04
     1.834100         11.55
     1.832353         24.17
     1.805890          2.35
     1.799778          0.41
     1.798013          0.01
     1.793164          0.14
     1.783755          0.73
     1.783749          0.04
     1.779041          2.98
     1.777598          3.58
     1.775368          0.61
     1.770879          4.85
     1.770592          6.92
     1.763731          0.69
     1.761569          0.32
     1.753297        154.96
     1.749957        168.16
     1.740106          5.81
     1.738149          7.82
     1.736765          6.64
     1.732753         14.02
     1.730042          2.66
     1.730039         11.68
     1.721257          2.02
     1.720359          9.25
     1.708664          0.34
     1.708493          0.71
     1.697167          0.29
     1.692120          6.88
     1.687969          4.40
     1.681226          0.00
     1.681040          0.21
     1.665240         38.15
     1.664267         67.78
     1.663475          1.56
     1.662287         29.58
     1.661698         38.36
     1.660726          3.01
     1.654448          0.00
     1.652988          2.87
     1.637716         21.55
     1.635787         15.85
     1.614071          0.00
     1.612498         76.07
     1.611712          0.23
     1.607835         43.55
     1.607214         52.40
     1.595191          9.77
     1.593795          3.97
     1.592303          0.00
     1.590609          2.21
     1.583792         39.56
     1.582764         25.76
     1.582724         55.76
     1.582079         56.21
     1.580547         93.20
     1.580481         59.92
     1.579808         33.36
     1.579761         62.84
     1.578556         29.62
     1.576434         99.43
     1.568867          6.38
     1.564221          9.66
     1.562101          4.51
     1.562071          0.02
     1.561932         18.77
     1.561002         27.31
     1.559550          3.07
     1.555865          1.32
     1.551479          3.19
     1.551078          2.87
     1.534988          0.07
     1.534980         15.50
     1.525315          5.71
     1.523721         12.81
     1.507668          9.83
     1.504351          0.00
     1.500688          0.02
     1.500672          2.80
     1.499024          0.74
     1.498826          0.08
     1.496986          0.02
     1.495779         79.20
     1.493227          6.66
     1.493111         22.77
     1.492225         21.55
     1.490205         71.75
     1.489968          1.04
     1.489879         69.26
     1.488646          1.59
     1.485743          1.04
     1.479532          1.00
     1.477745          0.03
     1.468524          4.21
     1.468482         73.86
     1.468113         43.52
     1.466524         40.61
     1.465248         57.14
     1.464852         72.10
     1.464151         78.66
     1.463791          8.52
     1.463686         79.73
     1.463607          8.91
     1.463125         31.92
     1.462054         17.50
     1.454087          8.16
     1.452826         42.06
     1.442010         78.06
     1.423936         12.46
     1.421635         10.67
     1.420934          0.09
     1.420086          0.07
     1.406057         20.72
     1.404295         28.29
     1.403841         22.21
     1.403780          4.26
     1.396576         28.39
     1.392323         34.67
     1.390971          3.83
     1.389119          0.35
     1.382500          0.56
     1.382466        532.57
     1.382384          2.02
     1.378839         17.57
     1.378691          6.24
     1.372032         14.45
     1.371071         11.01
     1.369888         21.07
     1.369440         13.25
     1.368490          7.43
     1.368367        486.56
     1.368341         13.24
     1.367914          0.02
     1.367724          1.18
     1.367582          9.45
     1.367016        446.32
     1.366285        488.34
     1.364691        454.62
     1.359581          2.10
     1.359291          1.33
     1.358613         12.81
     1.356922          3.00
     1.356903          1.82
     1.356738         12.80
     1.354909          5.53
     1.354417          0.00
     1.352705          0.44
     1.346445          7.33
     1.344481          1.33
     1.343946         31.37
     1.342642         15.77
     1.341525         21.41
     1.340815         36.15
     1.340586         13.99
     1.340051         43.79
     1.339986         17.23
     1.338133          0.96
     1.337364         13.96
     1.336581         18.51
     1.336053          5.89
     1.330780        416.96
     1.325385          0.00
     1.323409          0.06
     1.319443          0.33
     1.318124          4.54
     1.316848         11.49
     1.314224          6.73
     1.310162          7.39
     1.309672          0.16
     1.306960          0.06
     1.306933         29.96
     1.306691          0.29
     1.305861          0.00
     1.305625          0.00
     1.302942         26.80
     1.302181          0.03
     1.298756          0.12
     1.297686          1.71
     1.296942          1.32
     1.296811          7.43
     1.296444          0.28
     1.296438          5.57
     1.295675          6.43
     1.294590          4.34
     1.293721          0.48
     1.292696          0.00
     1.292640          6.86
     1.292608         10.10
     1.283253         34.71
     1.283129          1.82
     1.283046          6.28
     1.280374          0.00
     1.279978          3.90
     1.278783          0.21
     1.278539          2.41
     1.278074         39.80
     1.277316          0.03
     1.276094          0.14
     1.275572          0.02
     1.275342          7.56
     1.275200         36.41
     1.265124         13.45
     1.264965         19.42
     1.264674          4.16
     1.263337          6.92
     1.262996          1.43
     1.262451         12.37
     1.252586         23.79
     1.252244          0.98
     1.251643          8.72
     1.251438          0.45
     1.251192         23.87
     1.250997          7.43
     1.250543          6.44
     1.249646          7.65
     1.248493          7.62
     1.246483          2.51
     1.246455          1.54
     1.246397          3.72
     1.243542          1.25
     1.243344          0.12
     1.242491          0.24
     1.240171         45.24
     1.237720          3.06
     1.236233          0.46
     1.235327          0.66
     1.235263         11.06
     1.235224          1.11
     1.233022         12.81
     1.232453          6.55
     1.232410          0.08
     1.230373          2.59
     1.229500          5.87
     1.222371          0.18
     1.221443          0.06
     1.221429          0.02
     1.220294          0.45
     1.220042          2.74
     1.219512         13.38
     1.219123          0.01
     1.218162          7.50
     1.217865          6.43
     1.217636          0.04
     1.213319          0.07
     1.212482          4.07
     1.209317         30.21
     1.208704         41.88
     1.207463          0.10
     1.205645          0.06
     1.200357          6.82
     1.199699         13.08
     1.192493          0.18
     1.192145          6.40
     1.191419          0.59
     1.190966         38.14
     1.189219          0.10
     1.188179          0.06
     1.188057         32.70
     1.186506         27.91
     1.186094         30.25
     1.184526          0.01
     1.184269          2.63
     1.183889          0.50
     1.180156          5.78
     1.177897          1.86
     1.177104          3.42
     1.177023         10.94
     1.176771          2.02
     1.176704         10.87
     1.176240          1.67
     1.174899          8.74
     1.174834          0.35
     1.173328          8.31
     1.172030          1.26
     1.172020         12.01
     1.171553          9.45
     1.171142          0.06
     1.171104         48.03
     1.170885         28.56
     1.170234         46.38
     1.169299          0.78
     1.169207          0.19
     1.168339          0.07
     1.167650          0.20
     1.167271          1.39
     1.167154          2.77
     1.162652         10.59
     1.162288         13.46
     1.161868         16.27
     1.161749         22.02
     1.158684          1.81
     1.158527          1.35
     1.158036          1.72
     1.157229          3.36
     1.156649          1.68
     1.155428         11.18
     1.155344          9.07
     1.150864          2.13
     1.149737          2.70
     1.147552          0.66
     1.147191          0.10
     1.145026          0.12
     1.144627          0.13
     1.144519          0.16
     1.142904          2.23
     1.142851          3.33
     1.142321         13.42
     1.141177          1.71
     1.139420          3.97
     1.138995          0.11
     1.138279          2.62
     1.134977          0.63
     1.132780          0.44
     1.132128          0.01
     1.131945          1.44
     1.130110          1.31
     1.129820          3.71
     1.128263         83.30
     1.127502          1.73
     1.126610         56.23
     1.126347          1.98
     1.124543          1.23
     1.121173         12.89
     1.120678          8.72
     1.120591          5.73
     1.120049          0.11
     1.119067          8.00
     1.118746          1.51
     1.117164          9.52
     1.117014          0.48
     1.114676         18.96
     1.114368         10.98
     1.113856         14.47
     1.113705          3.02
     1.113178          0.03
     1.112847          4.45
     1.112249          0.01
     1.111924          7.52
     1.111287          1.57
     1.110314          1.86
     1.109642          9.93
     1.109402          1.07
     1.108984          0.04
     1.108541          0.19
     1.108303          0.12
     1.107284          0.15
     1.107056         10.12
     1.105165          0.00
     1.104613          2.67
     1.104583          0.65
     1.098936         51.40
     1.098806         56.21
     1.097051          0.67
     1.095237          0.00
     1.091359          4.22
     1.091005          0.05
     1.090796          4.71
     1.090328          0.64
     1.089626          0.90
     1.088990          1.68
     1.088336          1.66
     1.088223          5.58
     1.088051          0.80
     1.087962          0.71
     1.087946          0.01
     1.086361          0.00
     1.084892         27.91
     1.084269         30.75
     1.083534          0.85
     1.083025         31.42
     1.082181         26.23
     1.081820          1.06
     1.081237          5.64
     1.080153          5.79
     1.078668          0.86
     1.078194          0.08
     1.077948          3.49
     1.077575          0.16
     1.076758          2.75
     1.076562          0.22
     1.076500          1.38
     1.076411          4.93
     1.076318          0.36
     1.075886          0.06
     1.075738          9.23
     1.075329          5.53
     1.075081          4.68
     1.073601          0.26
     1.072846          0.28
     1.072469          0.09
     1.072342          0.01
     1.071021          7.23
     1.070460          1.73
     1.070433         13.86
     1.070241          0.01
     1.069490          0.68
     1.069312          0.07
     1.068414          1.09
     1.067952          0.18
     1.067675          0.06
     1.067050          0.02
     1.066226          0.52
     1.064886          0.20
##############################################################################
###                            Comments                                    ###
##############################################################################
###   Diffraction pattern calculated by Match!. 
###   I/Icor calculated by Match!. 
##############################################################################


