##############################################################################
###               Entry exported from Match! User Database                 ###
##############################################################################
###                           Data published by:                           ###
###                                                                        ###
###               COD (Crystallography Open Database)
##############################################################################
data_9008092
_citation_journal_full    'Zeitschrift fur Kristallographie'
_citation_journal_volume  '117'
_citation_page_first  '467'
_citation_page_last   '469'
_citation_year  '1962'
_citation_title  'Die struktur des hochquarzes Note: sample is at T = 650 deg C Note: symmetry constraints on the temperature factors were applied incorrectly'
loop_
_publ_author_name
  'Arnold H.'
_chemical_formula_sum  'O2 Si'
_chemical_name_mineral  'Quartz'
_symmetry_space_group_name_H-M 'P 62 2 2'
_space_group_IT_number 180
_space_group_crystal_system 'hexagonal'
loop_
_symmetry_equiv_pos_as_xyz
   'x, y, z'
   'x-y, x, 0.33333+z'
   '-y, x-y, 0.66667+z'
   '-x, -y, z'
   '-x+y, -x, 0.33333+z'
   'y, -x+y, 0.66667+z'
   'x-y, -y, -z'
   '-x, -x+y, 0.33333-z'
   'y, x, 0.66667-z'
   '-y, -x, 0.66667-z'
   '-x+y, y, -z'
   'x, x-y, 0.33333-z'
_cell_length_a        5.0100
_cell_length_b        5.0100
_cell_length_c        5.4700
_cell_angle_alpha    90.000
_cell_angle_beta     90.000
_cell_angle_gamma   120.000
loop_
_atom_site_label
_atom_site_type_symbol
_atom_site_fract_x
_atom_site_fract_y
_atom_site_fract_z
_atom_site_occupancy
_atom_site_B_iso_or_equiv
si Si4+     0.500   0.000   0.000    1.00000    1.000
o  O2-    0.425   0.212   0.167    1.00000    1.000
_cell_measurement_wavelength    1.540598
_cell_measurement_radiation   'x-rays'
_cell_measurement_temperature    923.100000
_exptl_crystal_density_diffrn    2.516000
loop_
_pd_peak_d_spacing
_pd_peak_calc_intensity_net
     4.338787        200.18
     3.399275       1000.00
     2.505000         32.03
     2.313684         13.91
     2.277536          0.39
     2.169394         30.16
     2.016588         43.88
     1.847272        175.01
     1.823333          0.03
     1.699638         20.44
     1.680936          3.02
     1.639907          4.22
     1.570833         60.29
     1.474171          2.84
     1.446262         13.84
     1.406457         39.48
     1.398216         10.78
     1.395805         73.80
     1.304252          3.69
     1.278514         18.71
     1.252500         18.91
     1.220903          2.39
     1.219297         31.51
     1.203363          8.05
     1.200293         28.07
     1.175260         41.87
     1.156842          3.04
     1.138768          1.72
     1.133092          0.04
     1.101462         12.83
     1.084697         11.79
     1.063979          0.80
     1.060799         13.50
     1.050256         13.52
     1.032388          9.31
     1.008294          0.66
##############################################################################
###                            Comments                                    ###
##############################################################################
###   Diffraction pattern calculated by Match!. 
###   I/Icor calculated by Match!. 
##############################################################################


