##############################################################################
###               Entry exported from Match! User Database                 ###
##############################################################################
###                           Data published by:                           ###
###                                                                        ###
###               COD (Crystallography Open Database)
##############################################################################
data_9011362
_citation_journal_full    'Acta Crystallographica, Section C'
_citation_journal_volume  '43'
_citation_page_first  '2260'
_citation_page_last   '2262'
_citation_year  '1987'
_citation_title  'Refinement of the structure of orthorhombic sulfur, alpha-S8 Locality: synthetic Sample: at T = 298 K Note: alpha phase'
loop_
_publ_author_name
  'Rettig S. J.'
  'Trotter J.'
_chemical_formula_sum  'S'
_chemical_name_mineral  'Sulfur'
_symmetry_space_group_name_H-M 'F d d d'
_space_group_IT_number 70
_space_group_crystal_system 'orthorhombic'
loop_
_symmetry_equiv_pos_as_xyz
   'x, y, z'
   '0.5+x, 0.5+y, z'
   '0.5+x, y, 0.5+z'
   'x, 0.5+y, 0.5+z'
   '0.25-x, 0.25-y, 0.25-z'
   '0.75-x, 0.75-y, 0.25-z'
   '0.75-x, 0.25-y, 0.75-z'
   '0.25-x, 0.75-y, 0.75-z'
   '-x, -y, z'
   '0.5-x, 0.5-y, z'
   '0.5-x, -y, 0.5+z'
   '-x, 0.5-y, 0.5+z'
   'x, -y, -z'
   '0.5+x, 0.5-y, -z'
   '0.5+x, -y, 0.5-z'
   'x, 0.5-y, 0.5-z'
   '-x, y, -z'
   '0.5-x, 0.5+y, -z'
   '0.5-x, y, 0.5-z'
   '-x, 0.5+y, 0.5-z'
   '0.25+x, 0.25+y, 0.25-z'
   '0.75+x, 0.75+y, 0.25-z'
   '0.75+x, 0.25+y, 0.75-z'
   '0.25+x, 0.75+y, 0.75-z'
   '0.25-x, 0.25+y, 0.25+z'
   '0.75-x, 0.75+y, 0.25+z'
   '0.75-x, 0.25+y, 0.75+z'
   '0.25-x, 0.75+y, 0.75+z'
   '0.25+x, 0.25-y, 0.25+z'
   '0.75+x, 0.75-y, 0.25+z'
   '0.75+x, 0.25-y, 0.75+z'
   '0.25+x, 0.75-y, 0.75+z'
_cell_length_a       10.4646
_cell_length_b       12.8660
_cell_length_c       24.4860
_cell_angle_alpha    90.000
_cell_angle_beta     90.000
_cell_angle_gamma    90.000
loop_
_atom_site_label
_atom_site_type_symbol
_atom_site_fract_x
_atom_site_fract_y
_atom_site_fract_z
_atom_site_occupancy
_atom_site_B_iso_or_equiv
s1 S     0.856   -0.047   -0.049    1.00000    3.552
s2 S     0.707   -0.020   0.004    1.00000    3.552
s3 S     0.784   0.030   0.076    1.00000    3.632
s4 S     0.786   -0.092   0.129    1.00000    3.395
_cell_measurement_wavelength    1.541874
_cell_measurement_radiation   'x-rays'
_exptl_crystal_density_diffrn    2.067000
loop_
_pd_peak_d_spacing
_pd_peak_calc_intensity_net
     7.705839        321.93
     6.121500          0.00
     5.755905          0.01
     5.694726       1000.00
     4.811332        322.95
     4.193332        152.09
     4.059166        429.85
     3.917229          0.05
     3.852920          0.28
     3.568876          5.76
     3.446067          0.36
     3.382989          6.29
     3.335283         24.49
     3.217936          0.18
     3.216500         34.66
     3.212482          1.50
     3.112293          2.85
     3.083158         67.30
     3.060750          3.20
     2.877952         55.54
     2.847363         56.78
     2.774313         30.74
     2.689734         11.61
     2.673993         67.43
     2.624073         48.58
     2.616150          7.64
     2.579660          0.89
     2.568613          5.05
     2.501016         47.69
     2.485855          6.46
     2.443860          4.24
     2.425692         29.74
     2.405666          6.63
     2.389303         21.27
     2.377290          1.07
     2.368549         31.37
     2.288431          0.06
     2.274916          0.01
     2.253267          8.54
     2.243939         38.46
     2.225769         27.98
     2.217764          1.83
     2.217294          4.61
     2.146763         17.70
     2.140383         21.47
     2.116076         36.67
     2.112181          6.21
     2.096666          3.58
     2.083713          0.18
     2.063369          2.79
     2.058454          1.09
     2.041547          2.19
     2.040500          0.00
     2.033276          0.00
     2.029583          0.13
     2.007145          0.23
     2.002621         23.52
     2.002257          0.18
     1.988687         10.66
     1.984170          0.06
     1.958614         13.13
     1.941420          2.46
     1.926460          3.79
     1.918635          0.19
     1.907240          0.61
     1.903357         22.74
     1.899971          0.18
     1.898242          0.24
     1.887494         18.99
     1.875372          4.15
     1.856825          9.50
     1.840350          0.57
     1.834803          2.99
     1.832859          0.07
     1.825828          6.89
     1.823113          9.25
     1.817255         12.95
     1.805362          2.09
     1.784438          7.19
     1.781916          4.27
     1.778748          5.89
     1.767341         18.81
     1.755844         10.08
     1.726668          0.67
     1.723034         11.30
     1.722448          9.51
     1.719115          8.65
     1.701594          0.00
     1.697990          0.73
     1.691495          0.09
     1.687735          7.75
     1.683331          0.18
     1.667641          4.37
     1.664935          1.42
     1.662122          3.63
     1.658780         10.48
     1.656597          4.24
     1.647756         12.66
     1.645250          0.29
     1.643771          0.59
     1.643417          2.70
     1.636579          0.93
     1.623082          0.85
     1.622501          7.81
     1.620108          1.55
     1.613185          3.80
     1.608968          3.65
     1.608250          0.06
     1.607747          0.00
     1.606241          0.00
     1.603777          0.02
     1.600723          6.07
     1.600368          0.00
     1.594735          0.46
     1.592463          0.64
     1.562590          3.85
     1.560887          0.01
     1.556147          1.70
     1.555465          0.24
     1.547161          9.00
     1.545932          3.66
     1.543227          0.01
     1.541579          0.01
     1.541168          0.00
     1.536409          0.02
     1.530375          4.81
     1.525294          0.46
     1.521325          0.05
     1.516152          1.12
     1.514199          2.40
     1.509662          0.09
     1.507143          0.01
     1.504092          0.59
     1.490976          3.62
     1.487268          0.03
##############################################################################
###                            Comments                                    ###
##############################################################################
###   Diffraction pattern calculated by Match!. 
###   I/Icor calculated by Match!. 
##############################################################################


