##############################################################################
###               Entry exported from Match! User Database                 ###
##############################################################################
###                           Data published by:                           ###
###                                                                        ###
###               COD (Crystallography Open Database)
##############################################################################
data_9012333
_citation_journal_full    'Zeitschrift fur Anorganische und Allgemeine Chemie'
_citation_journal_volume  '405'
_citation_page_first  '153'
_citation_page_last   '162'
_citation_year  '1974'
_citation_title  'Darstellung und kristallstruktur von cyclooktadekaschwefel, S18, und cycloikosaschwefel, S20 Locality: synthetic Note: structure for S18'
loop_
_publ_author_name
  'Schmidt V. M.'
  'Wilhelm E.'
  'Debaerdemaeker T.'
  'Hellner E.'
  'Kutoglu A.'
_chemical_formula_sum  'S'
_chemical_name_mineral  'Sulfur'
_symmetry_space_group_name_H-M 'P 21 21 21'
_space_group_IT_number 19
_space_group_crystal_system 'orthorhombic'
loop_
_symmetry_equiv_pos_as_xyz
   'x, y, z'
   '0.5-x, -y, 0.5+z'
   '0.5+x, 0.5-y, -z'
   '-x, 0.5+y, 0.5-z'
_cell_length_a       21.1520
_cell_length_b       11.4410
_cell_length_c        7.5810
_cell_angle_alpha    90.000
_cell_angle_beta     90.000
_cell_angle_gamma    90.000
loop_
_atom_site_label
_atom_site_type_symbol
_atom_site_fract_x
_atom_site_fract_y
_atom_site_fract_z
_atom_site_occupancy
_atom_site_B_iso_or_equiv
s1 S     0.514   0.325   0.716    1.00000    1.000
s2 S     0.593   0.259   0.595    1.00000    1.000
s3 S     0.668   0.343   0.711    1.00000    1.000
s4 S     0.694   0.247   0.929    1.00000    1.000
s5 S     0.641   0.307   0.138    1.00000    1.000
s6 S     0.687   0.450   0.242    1.00000    1.000
s7 S     0.663   0.588   0.084    1.00000    1.000
s8 S     0.580   0.657   0.176    1.00000    1.000
s9 S     0.510   0.552   0.077    1.00000    1.000
s10 S     0.487   0.440   0.279    1.00000    1.000
s11 S     0.406   0.506   0.389    1.00000    1.000
s12 S     0.332   0.420   0.267    1.00000    1.000
s13 S     0.305   0.516   0.050    1.00000    1.000
s14 S     0.360   0.459   0.842    1.00000    1.000
s15 S     0.316   0.311   0.746    1.00000    1.000
s16 S     0.341   0.178   0.915    1.00000    1.000
s17 S     0.424   0.106   0.825    1.00000    1.000
s18 S     0.494   0.212   0.919    1.00000    1.000
_cell_measurement_wavelength    1.541874
_cell_measurement_radiation   'x-rays'
_exptl_crystal_density_diffrn    2.088000
loop_
_pd_peak_d_spacing
_pd_peak_calc_intensity_net
    10.576000         69.36
    10.063231          0.76
     7.766179         19.95
     7.136486          0.83
     6.319561        112.51
     6.161544          0.03
     6.055089         42.83
     6.002404         31.75
     5.720500          0.07
     5.522115          0.43
     5.424862         92.41
     5.288000        157.08
     5.162889          0.23
     5.031616          1.38
     4.800085         18.05
     4.705925        183.17
     4.566333          8.01
     4.463507       1000.00
     4.442277        159.66
     4.337119          0.01
     4.192262          5.27
     4.055497        139.91
     3.967843          7.26
     3.883089          0.37
     3.832731         24.10
     3.790500        162.96
     3.753152        432.53
     3.731064        498.28
     3.694153          0.45
     3.598164        132.68
     3.587549        392.34
     3.568243          1.81
     3.547206        110.40
     3.525333        633.81
     3.515442        247.75
     3.456092        276.03
     3.406873        138.67
     3.406415         37.63
     3.401360        151.55
     3.369023          1.45
     3.363523         61.02
     3.354411        288.39
     3.338614        627.86
     3.242774          7.83
     3.204944          1.45
     3.196609          0.20
     3.159780          7.11
     3.125103        279.30
     3.103317        597.91
     3.093171         10.59
     3.080772          4.77
     3.078699        143.31
     3.067536         16.50
     3.027544         19.71
     3.001202          0.66
     2.974809         28.69
     2.921535         16.97
     2.883461        130.54
     2.863953        102.46
     2.860250         22.92
     2.834453          0.45
     2.832575         19.41
     2.823044         34.21
     2.806953          0.33
     2.790488         27.99
     2.761058          1.92
     2.740839        115.11
     2.726107         27.55
     2.712431         37.88
     2.688442        282.91
     2.676114         98.97
     2.671864         63.70
     2.666986        165.95
     2.654949         30.95
     2.653406        239.94
     2.650461          0.08
     2.644000         19.02
     2.605575         25.22
     2.594347          2.67
     2.588726          3.55
     2.581445         31.09
     2.576104         12.64
     2.531559        425.92
     2.519936          1.29
     2.518142         64.10
     2.515808          2.19
     2.512022         70.24
     2.509157          0.08
     2.501957          5.11
     2.496520          0.13
     2.467528          7.16
     2.457814          0.22
     2.450907         27.81
     2.449831        273.32
     2.439126          2.27
     2.402991          5.57
     2.400043          0.00
     2.396505        158.36
     2.387760         33.90
     2.378829          0.02
     2.369485          0.33
     2.368388          0.00
     2.362808          1.27
     2.352962          8.20
     2.329018         12.75
     2.313977          2.58
     2.311512          0.39
     2.302151          0.01
     2.297832         49.63
     2.288115          1.12
     2.283167         72.90
     2.280036          0.07
     2.274927          7.02
     2.269981         22.54
     2.269016         47.11
     2.261590         60.14
     2.260636         74.19
     2.258205          0.78
     2.244823          0.38
     2.236454          8.76
     2.236066         14.86
     2.231754          1.04
     2.221139          0.01
     2.202821          2.46
     2.196484          1.31
     2.190589          2.38
     2.183853        147.33
     2.178936         22.87
     2.176452          0.01
     2.173904          0.27
     2.172871          6.04
     2.172120         23.84
     2.169423          0.28
     2.168559         10.14
     2.145059         21.21
     2.137748          5.75
     2.131535         12.18
     2.131444         21.84
     2.130624         76.46
     2.118001          3.01
     2.115200         41.71
     2.106520          5.41
     2.100024          0.05
     2.096151         11.48
     2.096131          1.22
     2.091948          3.41
     2.089685          1.39
     2.088766         56.67
     2.079952         15.78
     2.077239          0.26
     2.065938          6.10
     2.053848          0.20
     2.037383          0.16
     2.028455          5.06
     2.027749          6.86
     2.023810          3.41
     2.021533          3.35
     2.018363          0.43
     2.012646          2.63
     2.009219          1.23
     2.008550         11.79
     2.005827          3.44
     2.003393          6.66
     2.000801          2.91
     1.997434         11.79
     1.983922          0.04
     1.967671         79.01
     1.958939          5.61
     1.956961          2.95
     1.950592         12.86
     1.945260          2.49
     1.941545          2.88
     1.938483          0.31
     1.934559         46.08
     1.933035         24.07
     1.926176         12.30
     1.919339          6.30
     1.919289          1.45
     1.916366          0.33
     1.911243          9.33
     1.906833          0.73
     1.899132          7.42
     1.896312         15.81
     1.895250          0.89
     1.893772        269.50
     1.887688         21.11
     1.887444          0.95
     1.886227          7.80
     1.885781          9.05
     1.885674          6.86
     1.885106         11.50
     1.880841         72.78
     1.876576          0.07
     1.869769         12.84
     1.865532          8.91
     1.864123          2.04
     1.863885          0.22
     1.862507          7.79
     1.860633          1.19
     1.849738          0.37
     1.849233          0.57
     1.847077          1.16
     1.842206          5.78
     1.841216          5.61
     1.840705         21.80
     1.839632          2.58
     1.836945         14.41
     1.835936          8.23
     1.830279          0.19
     1.828948          3.00
     1.826821          2.40
     1.824190          0.57
     1.823466         16.64
     1.822689          0.36
     1.821637         46.44
     1.821597          2.07
     1.815851          0.11
     1.808287          6.86
     1.807299          8.71
     1.803969         73.83
     1.799082          3.48
     1.797020          5.72
     1.793774          2.56
     1.792609         40.88
     1.788733          9.45
     1.784122         25.49
     1.782889          3.15
     1.777605         90.54
     1.773603         10.09
     1.773567         11.66
     1.772187        164.78
     1.769428         28.92
     1.765900         42.05
     1.762817          5.85
     1.762667         74.55
     1.757721         25.51
     1.745576         93.89
     1.743227          4.41
     1.742112          5.04
     1.740238          3.53
     1.738397          6.21
     1.730225         70.98
     1.729607          0.28
     1.728483         26.38
     1.728057         10.01
     1.728046         11.45
     1.720963          0.15
     1.716997          5.55
     1.716869          0.46
     1.714868         20.04
     1.712334         39.13
     1.710175        102.96
     1.703436          2.83
     1.703208         42.69
     1.701818         70.31
     1.700680         42.45
     1.697939         56.43
     1.697859          9.91
     1.697220         22.43
     1.696159          8.51
     1.695923         12.39
     1.694419        114.81
     1.691783         35.78
     1.690731         29.08
     1.686849          2.56
     1.684512          0.57
     1.681762         23.05
     1.677205          0.08
     1.675779         21.81
     1.674757         53.39
     1.674585          6.22
     1.669307         24.31
     1.668297        239.49
     1.662363          6.15
     1.659436         31.92
     1.655797          1.23
     1.655587         38.63
     1.651817         69.23
     1.650086          8.63
     1.649111          1.88
     1.648002         18.61
     1.647551          7.91
     1.644406          5.27
     1.643745         46.20
     1.642647         26.47
     1.639490         37.29
     1.637636          8.58
     1.637607         26.57
     1.629571          0.41
     1.621981          0.09
     1.621387          0.22
     1.616024          3.23
     1.615254          0.14
     1.615108         19.22
     1.612596          0.59
     1.610869          1.36
     1.605923         15.67
     1.605572          5.31
     1.604673          4.26
     1.602472          4.24
     1.602445          1.45
     1.600028          0.40
     1.598305          9.73
     1.597718          0.09
     1.595805          0.20
     1.593180         33.69
     1.592208          0.23
     1.590849          0.04
     1.589992         48.23
     1.582933         14.44
     1.580144         32.91
     1.579890          6.49
     1.579793          6.74
     1.577306         66.21
     1.575689         25.64
     1.575501          2.44
     1.575179         11.47
     1.574330          7.88
     1.574000         16.57
     1.568641         17.06
     1.565539          2.36
     1.565004         12.90
     1.564021          1.82
     1.562552          2.67
     1.561583          4.27
     1.561541          0.08
     1.560467          2.45
     1.558212          7.48
     1.553236         26.20
     1.551659         15.08
     1.546586          0.04
     1.545839          1.18
     1.541660         29.12
     1.540386         12.47
     1.539592          0.34
     1.539350          0.67
     1.533768          3.34
     1.532686          4.82
     1.530250          0.40
     1.529433         43.59
     1.529226          1.55
     1.528449          2.32
     1.526611          9.20
     1.524597          0.00
     1.522111          0.97
     1.521627          5.12
     1.518185         26.08
     1.516744         26.57
     1.515373         28.64
     1.513772          3.80
     1.512320          0.04
     1.510857          2.01
     1.506588          8.20
     1.504766          2.56
     1.503059         12.01
     1.500855          1.37
     1.500850          4.12
     1.500601          7.77
     1.499278          7.23
     1.497853          5.59
     1.497086         16.89
     1.496562          2.73
     1.495151         17.02
     1.494671         47.25
     1.492594          0.99
     1.488106          3.25
     1.487836          7.14
     1.487404         61.64
     1.485962          7.04
     1.483892          2.02
     1.482816          0.34
     1.482545          8.03
     1.482314          0.16
     1.481718          0.04
     1.480759          3.62
     1.480045         10.73
     1.479777          1.21
     1.479074          4.98
     1.478273         14.05
     1.475315          6.22
     1.474618          7.47
     1.474082         27.98
     1.472121          0.04
     1.472040         21.10
     1.470778          5.56
     1.470027          2.43
     1.469446         29.51
     1.468227         10.99
     1.467960          2.96
     1.465595          0.06
     1.463200          1.91
     1.462721          6.15
     1.462089         48.08
     1.460768          0.24
     1.459599          0.49
     1.457473          0.77
     1.456136          0.28
     1.455240          0.17
     1.453296         11.38
     1.451722          7.17
     1.446558          0.05
     1.445894          0.69
     1.445789          5.24
     1.445706          0.79
     1.445126          9.12
     1.443823          0.08
     1.441730          0.22
     1.437605          1.81
     1.437250          1.52
     1.434922         25.84
     1.434382         60.69
     1.434301         10.27
     1.432225          8.75
     1.431976          0.22
     1.430125          7.95
     1.429293          3.92
     1.428571          5.68
     1.428278          2.92
     1.427645          0.81
     1.427297          1.51
     1.426867          1.19
     1.420187          2.90
     1.417226          0.69
     1.416319         18.19
     1.416288          0.29
     1.414470          2.14
     1.414262          0.66
     1.412433          5.44
     1.412354          9.38
     1.411522          1.68
     1.410911          6.02
     1.408934          2.57
     1.406985          5.98
     1.405818          0.36
     1.405338         17.19
     1.404643         12.99
     1.403477          0.86
     1.402246          3.38
     1.401638         22.02
     1.401583          0.01
     1.400901          0.06
     1.400071          8.78
     1.399543          1.66
     1.397421          0.20
     1.396595          0.73
     1.396390          1.83
     1.395244          5.78
     1.393092          3.98
     1.393035          7.70
     1.392842          0.04
     1.392201          0.34
     1.391996         14.65
     1.390276          0.02
     1.390247          0.46
     1.386354          0.21
     1.384843         37.75
     1.382634         29.64
     1.381618          7.21
     1.381136          3.98
     1.380914          1.31
     1.380529          2.11
     1.379781          3.97
     1.379252          0.73
     1.378227          3.78
     1.376287         12.12
     1.375946          2.90
     1.375381          5.47
     1.373288          7.21
     1.372388          0.01
     1.372263          0.86
     1.370420          4.02
     1.369509         11.39
     1.369149          0.40
     1.368027          0.04
     1.367443          5.11
     1.363053          7.94
     1.361438          4.62
     1.360977         12.07
     1.359386          4.12
     1.358351          0.05
     1.358192          1.77
     1.356215          2.63
     1.355171          0.11
     1.354803          3.52
     1.353983          0.63
     1.353305          4.30
     1.351832          1.60
     1.349817          0.21
     1.349283          2.45
     1.348580          0.98
     1.347352          4.86
     1.347106         10.91
     1.345763          8.53
     1.344221          0.00
     1.344177         10.57
     1.341847          0.25
     1.341514          1.85
     1.340519          2.64
     1.339621          5.24
     1.338057         15.96
##############################################################################
###                            Comments                                    ###
##############################################################################
###   Diffraction pattern calculated by Match!. 
###   I/Icor calculated by Match!. 
##############################################################################


