##############################################################################
###               Entry exported from Match! User Database                 ###
##############################################################################
###                           Data published by:                           ###
###                                                                        ###
###               COD (Crystallography Open Database)
##############################################################################
data_9005627
_citation_journal_full    'European Journal of Mineralogy'
_citation_journal_volume  '15'
_citation_page_first  '875'
_citation_page_last   '881'
_citation_year  '2003'
_citation_title  'X-ray single-crystal structure refinement of an OH-rich topaz from Sulu UHP terrane (Eastern China) - Structural foundation of the correlation between cell parameters and fluorine content Locality: Sulu UHP terrane, Eastern China'
loop_
_publ_author_name
  'Alberico A.'
  'Ferrando S.'
  'Ivaldi G.'
  'Ferraris G.'
_chemical_formula_sum  'Al2 F2 O4 Si'
_chemical_name_mineral  'Topaz'
_symmetry_space_group_name_H-M 'P b n m'
_space_group_IT_number 62
_space_group_crystal_system 'orthorhombic'
loop_
_symmetry_equiv_pos_as_xyz
   'x, y, z'
   '-x, -y, 0.5+z'
   '0.5+x, 0.5-y, -z'
   '0.5-x, 0.5+y, 0.5-z'
   '-x, -y, -z'
   'x, y, 0.5-z'
   '0.5-x, 0.5+y, z'
   '0.5+x, 0.5-y, 0.5+z'
_cell_length_a        4.6696
_cell_length_b        8.8486
_cell_length_c        8.3915
_cell_angle_alpha    90.000
_cell_angle_beta     90.000
_cell_angle_gamma    90.000
loop_
_atom_site_label
_atom_site_type_symbol
_atom_site_fract_x
_atom_site_fract_y
_atom_site_fract_z
_atom_site_occupancy
_atom_site_B_iso_or_equiv
al Al     0.905   0.131   0.081    1.00000    0.426
si Si     0.400   0.941   0.250    1.00000    0.369
o1 O2-     0.794   0.531   0.250    1.00000    0.486
o2 O2-     0.452   0.756   0.250    1.00000    0.486
o3 O2-     0.788   0.010   0.907    1.00000    0.479
f F-     0.902   0.753   0.060    1.00000    0.649
_cell_measurement_wavelength    1.540598
_cell_measurement_radiation   'x-rays'
_exptl_crystal_density_diffrn    3.503000
loop_
_pd_peak_d_spacing
_pd_peak_calc_intensity_net
     4.424300         42.80
     4.195750          9.66
     4.129818         86.10
     4.080383          0.52
     3.913659         41.00
     3.705394        676.23
     3.211672        808.43
     3.044436        342.65
     2.999491        194.13
     2.943256       1000.00
     2.550290          0.32
     2.493722        242.64
     2.399591         74.78
     2.390405        188.73
     2.364280        483.64
     2.334800          9.67
     2.315944         73.21
     2.257535         32.13
     2.212150         95.13
     2.180023        131.05
     2.143679          3.58
     2.139071         44.48
     2.109323        552.07
     2.097875          9.19
     2.064909        285.78
     2.040192          0.00
     2.005096          0.01
     1.999165         66.37
     1.988033         34.94
     1.956829         25.45
     1.944738         44.16
     1.895572          0.00
     1.870386        230.91
     1.861400        253.30
     1.852697          0.37
     1.830665        111.01
     1.804769         61.47
     1.788598         50.52
     1.756756          1.03
     1.756374          0.02
     1.735113          0.24
     1.677907        282.14
     1.661278         90.37
     1.654861          8.07
     1.626460        131.01
     1.623591          0.46
     1.605836         28.36
     1.605355          0.00
     1.579388         12.82
     1.577216         10.72
     1.569193          5.12
     1.560483          7.77
     1.554815         13.71
     1.539447          7.18
     1.536768         83.61
     1.532996          1.81
     1.531772        192.95
     1.530428          0.06
     1.522218         31.24
     1.508038          1.97
     1.499746         12.79
     1.487453         21.13
     1.474767          4.32
     1.471628          0.17
     1.468314        104.67
     1.452506         50.70
     1.447262         24.14
     1.446340         19.25
     1.439897         36.08
     1.424270        376.86
     1.410359        232.69
     1.406298          0.29
     1.398583        232.13
     1.392654         12.92
     1.392340         78.94
     1.391323          7.87
     1.390852         33.73
     1.386957          0.48
     1.385901          3.82
     1.379336         48.99
     1.376606          0.59
     1.360128        375.90
     1.358448          8.16
     1.346881         46.63
     1.344339          1.57
     1.337053          8.90
     1.336854          0.04
     1.333540          7.94
     1.333394         50.27
     1.324683          3.74
     1.308004          5.98
     1.304553         39.12
     1.302379          0.01
     1.300080          1.85
     1.299280          3.20
     1.285399          0.31
     1.282277         71.43
     1.275145         21.31
     1.272988          1.22
     1.259336         19.45
     1.258588         15.52
     1.256442         60.71
     1.246861         25.28
     1.237746         25.20
     1.237102          9.45
     1.235131          0.00
     1.233321         15.46
     1.220168         51.45
     1.219834         44.74
     1.218155         16.09
     1.207470          0.71
     1.206484         26.29
     1.202943          0.90
     1.199796          2.58
     1.195203          1.22
     1.188916          0.32
     1.182140          0.47
     1.178363          2.22
     1.171631          0.10
     1.170448         11.20
     1.168779          0.66
     1.168125         22.38
     1.167400         19.53
     1.161133          5.10
     1.160270          4.43
     1.158643          0.32
     1.157972         29.54
     1.157605          4.59
     1.157371          0.32
     1.157064          0.23
     1.151264         37.99
     1.150940          6.67
     1.146518         49.19
     1.145988         13.16
     1.141258          1.36
     1.138840          0.59
     1.131882          1.17
     1.128767          3.46
     1.125912          0.23
     1.124678          2.15
     1.123100          2.21
     1.118692          0.07
     1.118393          0.33
     1.115702          5.35
     1.111620          0.91
     1.111367         12.32
     1.107827         21.45
     1.106075         27.60
     1.105084         29.53
     1.101993          2.48
     1.096590          1.50
     1.090011         24.65
     1.088300         13.57
     1.085472         11.07
     1.080429          1.78
     1.079733         11.05
     1.078422          3.95
     1.077907          0.24
     1.076503          1.63
     1.076294          9.95
     1.074546          6.83
     1.071840          1.07
     1.070557         14.84
     1.069536         41.03
     1.069441          4.80
     1.068195          4.24
     1.067549          8.78
     1.064361          6.68
     1.061950         12.89
     1.058769         11.58
     1.054741          0.04
     1.054662         13.69
     1.053975          6.64
     1.050874          7.56
     1.048938          0.10
     1.046752         51.41
     1.042539          0.07
     1.037323         35.39
     1.036739          0.00
     1.033206          0.39
     1.033033         52.82
     1.032455         10.25
     1.028579          0.00
     1.028112         16.60
     1.024728         12.31
     1.021016          0.74
     1.020645         15.97
     1.020096          0.40
     1.016657         27.88
     1.014812          0.49
     1.014238          5.24
     1.013384         10.68
     1.012702         64.40
     1.011948         10.66
##############################################################################
###                            Comments                                    ###
##############################################################################
###   Diffraction pattern calculated by Match!. 
###   I/Icor calculated by Match!. 
##############################################################################


