##############################################################################
###               Entry exported from Match! User Database                 ###
##############################################################################
###                           Data published by:                           ###
###                                                                        ###
###               COD (Crystallography Open Database)
##############################################################################
data_9007149
_citation_journal_full    'Physics and Chemistry of Minerals'
_citation_journal_volume  '29'
_citation_page_first  '595'
_citation_page_last   '608'
_citation_year  '2002'
_citation_title  'The crystal chemistry of birefringent natural uvarovites. Part III. Application of the superposition model of crystal fields with a characterization of synthetic cubic uvarovite Sample: Uvasyn-22'
loop_
_publ_author_name
  'Andrut M.'
  'Wildner M.'
_chemical_formula_sum  'Ca3 Cr2 O12 Si3'
_chemical_name_mineral  'Uvarovite'
_symmetry_space_group_name_H-M 'I a -3 d'
_space_group_IT_number 230
_space_group_crystal_system 'cubic'
loop_
_symmetry_equiv_pos_as_xyz
   'x, y, z'
   '0.5+x, 0.5+y, 0.5+z'
   '0.25-y, 0.75+x, 0.25+z'
   '0.75-y, 0.25+x, 0.75+z'
   '-x, 0.5-y, z'
   '0.5-x, -y, 0.5+z'
   '0.25+y, 0.25-x, 0.75+z'
   '0.75+y, 0.75-x, 0.25+z'
   '0.25+x, 0.25-z, 0.75+y'
   '0.75+x, 0.75-z, 0.25+y'
   'x, -y, 0.5-z'
   '0.5+x, 0.5-y, -z'
   '0.75+x, 0.25+z, 0.25-y'
   '0.25+x, 0.75+z, 0.75-y'
   '0.75+z, 0.25+y, 0.25-x'
   '0.25+z, 0.75+y, 0.75-x'
   '0.5-x, y, -z'
   '-x, 0.5+y, 0.5-z'
   '0.25-z, 0.75+y, 0.25+x'
   '0.75-z, 0.25+y, 0.75+x'
   'z, x, y'
   '0.5+z, 0.5+x, 0.5+y'
   'y, z, x'
   '0.5+y, 0.5+z, 0.5+x'
   '-y, 0.5-z, x'
   '0.5-y, -z, 0.5+x'
   'z, -x, 0.5-y'
   '0.5+z, 0.5-x, -y'
   '0.5-y, z, -x'
   '-y, 0.5+z, 0.5-x'
   '-z, 0.5-x, y'
   '0.5-z, -x, 0.5+y'
   '0.5-z, x, -y'
   '-z, 0.5+x, 0.5-y'
   'y, -z, 0.5-x'
   '0.5+y, 0.5-z, -x'
   '0.75+y, 0.25+x, 0.25-z'
   '0.25+y, 0.75+x, 0.75-z'
   '0.25-y, 0.25-x, 0.25-z'
   '0.75-y, 0.75-x, 0.75-z'
   '0.25-x, 0.75+z, 0.25+y'
   '0.75-x, 0.25+z, 0.75+y'
   '0.25-x, 0.25-z, 0.25-y'
   '0.75-x, 0.75-z, 0.75-y'
   '0.25+z, 0.25-y, 0.75+x'
   '0.75+z, 0.75-y, 0.25+x'
   '0.25-z, 0.25-y, 0.25-x'
   '0.75-z, 0.75-y, 0.75-x'
   '-x, -y, -z'
   '0.5-x, 0.5-y, 0.5-z'
   '0.25+y, 0.75-x, 0.25-z'
   '0.75+y, 0.25-x, 0.75-z'
   'x, 0.5+y, -z'
   '0.5+x, y, 0.5-z'
   '0.25-y, 0.25+x, 0.75-z'
   '0.75-y, 0.75+x, 0.25-z'
   '0.25-x, 0.25+z, 0.75-y'
   '0.75-x, 0.75+z, 0.25-y'
   '-x, y, 0.5+z'
   '0.5-x, 0.5+y, z'
   '0.75-x, 0.25-z, 0.25+y'
   '0.25-x, 0.75-z, 0.75+y'
   '0.75-z, 0.25-y, 0.25+x'
   '0.25-z, 0.75-y, 0.75+x'
   '0.5+x, -y, z'
   'x, 0.5-y, 0.5+z'
   '0.25+z, 0.75-y, 0.25-x'
   '0.75+z, 0.25-y, 0.75-x'
   '-z, -x, -y'
   '0.5-z, 0.5-x, 0.5-y'
   '-y, -z, -x'
   '0.5-y, 0.5-z, 0.5-x'
   'y, 0.5+z, -x'
   '0.5+y, z, 0.5-x'
   '-z, x, 0.5+y'
   '0.5-z, 0.5+x, y'
   '0.5+y, -z, x'
   'y, 0.5-z, 0.5+x'
   'z, 0.5+x, -y'
   '0.5+z, x, 0.5-y'
   '0.5+z, -x, y'
   'z, 0.5-x, 0.5+y'
   '-y, z, 0.5+x'
   '0.5-y, 0.5+z, x'
   '0.75-y, 0.25-x, 0.25+z'
   '0.25-y, 0.75-x, 0.75+z'
   '0.25+y, 0.25+x, 0.25+z'
   '0.75+y, 0.75+x, 0.75+z'
   '0.25+x, 0.75-z, 0.25-y'
   '0.75+x, 0.25-z, 0.75-y'
   '0.25+x, 0.25+z, 0.25+y'
   '0.75+x, 0.75+z, 0.75+y'
   '0.25-z, 0.25+y, 0.75-x'
   '0.75-z, 0.75+y, 0.25-x'
   '0.25+z, 0.25+y, 0.25+x'
   '0.75+z, 0.75+y, 0.75+x'
_cell_length_a       11.9973
_cell_length_b       11.9973
_cell_length_c       11.9973
_cell_angle_alpha    90.000
_cell_angle_beta     90.000
_cell_angle_gamma    90.000
loop_
_atom_site_label
_atom_site_type_symbol
_atom_site_fract_x
_atom_site_fract_y
_atom_site_fract_z
_atom_site_occupancy
_atom_site_B_iso_or_equiv
ca   Ca   0.125   0.000   0.250    1.00000    0.442
cr  Cr    0.000   0.000   0.000    1.00000    0.268
si  Si    0.375   0.000   0.250    1.00000    0.252
o   O2-   0.039   0.048   0.654    1.00000    0.410
_cell_measurement_wavelength    1.541874
_cell_measurement_radiation   'x-rays'
_exptl_crystal_density_diffrn    3.850000
loop_
_pd_peak_d_spacing
_pd_peak_calc_intensity_net
     4.897877          0.03
     4.241686        179.54
     3.206413          1.67
     2.999325        682.06
     2.682678       1000.00
     2.557833         84.99
     2.448939        638.69
     2.352864        150.95
     2.190397        133.19
     2.120843          0.66
     1.946219        223.85
     1.896940        116.74
     1.851224          1.33
     1.768905          0.48
     1.731661         73.18
     1.696674          7.19
     1.663726        274.92
     1.632626         14.70
     1.603207        776.14
     1.523659          4.16
     1.499663        128.76
     1.476766         17.61
     1.454886          1.04
     1.433952          9.38
     1.413895         21.97
     1.394658          3.10
     1.358427          2.89
     1.341339        169.63
     1.309013        170.02
     1.293702         11.68
     1.278916        122.25
     1.264627         20.97
     1.237427          4.67
     1.224469         10.43
     1.211910         37.18
     1.199730          0.03
     1.187910          4.76
     1.176432          3.29
     1.165281          4.61
     1.143898          6.08
     1.123650          0.15
     1.113921        149.51
     1.104441          1.61
     1.095199        177.98
     1.086185          6.20
     1.068804          3.97
     1.060421        119.44
     1.036409          2.34
     1.028760          2.17
     1.021278          7.56
     1.013957          0.69
     1.006791          0.53
##############################################################################
###                            Comments                                    ###
##############################################################################
###   Diffraction pattern calculated by Match!. 
###   I/Icor calculated by Match!. 
##############################################################################


